<?xml version="1.0"?> 
<VTKFile type="UnstructuredGrid"> 
   <UnstructuredGrid> 
      <Piece NumberOfPoints="6000"  NumberOfCells="1500">  
          <Points>  
             <DataArray type="Float64" NumberOfComponents="3" format="ascii">   
-500.0   0.0   0.0
-450.0   0.0   0.0
-500.0   30.0   0.0
-500.0   0.0   16.666666666666668
-450.0   0.0   0.0
-450.0   30.0   0.0
-500.0   30.0   0.0
-450.0   30.0   16.666666666666668
-500.0   0.0   16.666666666666668
-500.0   30.0   16.666666666666668
-450.0   30.0   16.666666666666668
-500.0   30.0   0.0
-500.0   0.0   16.666666666666668
-450.0   30.0   16.666666666666668
-450.0   0.0   16.666666666666668
-450.0   0.0   0.0
-500.0   0.0   16.666666666666668
-450.0   30.0   16.666666666666668
-450.0   0.0   0.0
-500.0   30.0   0.0
-500.0   0.0   16.666666666666668
-450.0   0.0   16.666666666666668
-500.0   30.0   16.666666666666668
-500.0   0.0   33.333333333333336
-450.0   0.0   16.666666666666668
-450.0   30.0   16.666666666666668
-500.0   30.0   16.666666666666668
-450.0   30.0   33.333333333333336
-500.0   0.0   33.333333333333336
-500.0   30.0   33.333333333333336
-450.0   30.0   33.333333333333336
-500.0   30.0   16.666666666666668
-500.0   0.0   33.333333333333336
-450.0   30.0   33.333333333333336
-450.0   0.0   33.333333333333336
-450.0   0.0   16.666666666666668
-500.0   0.0   33.333333333333336
-450.0   30.0   33.333333333333336
-450.0   0.0   16.666666666666668
-500.0   30.0   16.666666666666668
-500.0   0.0   33.333333333333336
-450.0   0.0   33.333333333333336
-500.0   30.0   33.333333333333336
-500.0   0.0   50.0
-450.0   0.0   33.333333333333336
-450.0   30.0   33.333333333333336
-500.0   30.0   33.333333333333336
-450.0   30.0   50.0
-500.0   0.0   50.0
-500.0   30.0   50.0
-450.0   30.0   50.0
-500.0   30.0   33.333333333333336
-500.0   0.0   50.0
-450.0   30.0   50.0
-450.0   0.0   50.0
-450.0   0.0   33.333333333333336
-500.0   0.0   50.0
-450.0   30.0   50.0
-450.0   0.0   33.333333333333336
-500.0   30.0   33.333333333333336
-500.0   30.0   0.0
-450.0   30.0   0.0
-500.0   60.0   0.0
-500.0   30.0   16.666666666666668
-450.0   30.0   0.0
-450.0   60.0   0.0
-500.0   60.0   0.0
-450.0   60.0   16.666666666666668
-500.0   30.0   16.666666666666668
-500.0   60.0   16.666666666666668
-450.0   60.0   16.666666666666668
-500.0   60.0   0.0
-500.0   30.0   16.666666666666668
-450.0   60.0   16.666666666666668
-450.0   30.0   16.666666666666668
-450.0   30.0   0.0
-500.0   30.0   16.666666666666668
-450.0   60.0   16.666666666666668
-450.0   30.0   0.0
-500.0   60.0   0.0
-500.0   30.0   16.666666666666668
-450.0   30.0   16.666666666666668
-500.0   60.0   16.666666666666668
-500.0   30.0   33.333333333333336
-450.0   30.0   16.666666666666668
-450.0   60.0   16.666666666666668
-500.0   60.0   16.666666666666668
-450.0   60.0   33.333333333333336
-500.0   30.0   33.333333333333336
-500.0   60.0   33.333333333333336
-450.0   60.0   33.333333333333336
-500.0   60.0   16.666666666666668
-500.0   30.0   33.333333333333336
-450.0   60.0   33.333333333333336
-450.0   30.0   33.333333333333336
-450.0   30.0   16.666666666666668
-500.0   30.0   33.333333333333336
-450.0   60.0   33.333333333333336
-450.0   30.0   16.666666666666668
-500.0   60.0   16.666666666666668
-500.0   30.0   33.333333333333336
-450.0   30.0   33.333333333333336
-500.0   60.0   33.333333333333336
-500.0   30.0   50.0
-450.0   30.0   33.333333333333336
-450.0   60.0   33.333333333333336
-500.0   60.0   33.333333333333336
-450.0   60.0   50.0
-500.0   30.0   50.0
-500.0   60.0   50.0
-450.0   60.0   50.0
-500.0   60.0   33.333333333333336
-500.0   30.0   50.0
-450.0   60.0   50.0
-450.0   30.0   50.0
-450.0   30.0   33.333333333333336
-500.0   30.0   50.0
-450.0   60.0   50.0
-450.0   30.0   33.333333333333336
-500.0   60.0   33.333333333333336
-500.0   60.0   0.0
-450.0   60.0   0.0
-500.0   90.0   0.0
-500.0   60.0   16.666666666666668
-450.0   60.0   0.0
-450.0   90.0   0.0
-500.0   90.0   0.0
-450.0   90.0   16.666666666666668
-500.0   60.0   16.666666666666668
-500.0   90.0   16.666666666666668
-450.0   90.0   16.666666666666668
-500.0   90.0   0.0
-500.0   60.0   16.666666666666668
-450.0   90.0   16.666666666666668
-450.0   60.0   16.666666666666668
-450.0   60.0   0.0
-500.0   60.0   16.666666666666668
-450.0   90.0   16.666666666666668
-450.0   60.0   0.0
-500.0   90.0   0.0
-500.0   60.0   16.666666666666668
-450.0   60.0   16.666666666666668
-500.0   90.0   16.666666666666668
-500.0   60.0   33.333333333333336
-450.0   60.0   16.666666666666668
-450.0   90.0   16.666666666666668
-500.0   90.0   16.666666666666668
-450.0   90.0   33.333333333333336
-500.0   60.0   33.333333333333336
-500.0   90.0   33.333333333333336
-450.0   90.0   33.333333333333336
-500.0   90.0   16.666666666666668
-500.0   60.0   33.333333333333336
-450.0   90.0   33.333333333333336
-450.0   60.0   33.333333333333336
-450.0   60.0   16.666666666666668
-500.0   60.0   33.333333333333336
-450.0   90.0   33.333333333333336
-450.0   60.0   16.666666666666668
-500.0   90.0   16.666666666666668
-500.0   60.0   33.333333333333336
-450.0   60.0   33.333333333333336
-500.0   90.0   33.333333333333336
-500.0   60.0   50.0
-450.0   60.0   33.333333333333336
-450.0   90.0   33.333333333333336
-500.0   90.0   33.333333333333336
-450.0   90.0   50.0
-500.0   60.0   50.0
-500.0   90.0   50.0
-450.0   90.0   50.0
-500.0   90.0   33.333333333333336
-500.0   60.0   50.0
-450.0   90.0   50.0
-450.0   60.0   50.0
-450.0   60.0   33.333333333333336
-500.0   60.0   50.0
-450.0   90.0   50.0
-450.0   60.0   33.333333333333336
-500.0   90.0   33.333333333333336
-500.0   90.0   0.0
-450.0   90.0   0.0
-500.0   120.0   0.0
-500.0   90.0   16.666666666666668
-450.0   90.0   0.0
-450.0   120.0   0.0
-500.0   120.0   0.0
-450.0   120.0   16.666666666666668
-500.0   90.0   16.666666666666668
-500.0   120.0   16.666666666666668
-450.0   120.0   16.666666666666668
-500.0   120.0   0.0
-500.0   90.0   16.666666666666668
-450.0   120.0   16.666666666666668
-450.0   90.0   16.666666666666668
-450.0   90.0   0.0
-500.0   90.0   16.666666666666668
-450.0   120.0   16.666666666666668
-450.0   90.0   0.0
-500.0   120.0   0.0
-500.0   90.0   16.666666666666668
-450.0   90.0   16.666666666666668
-500.0   120.0   16.666666666666668
-500.0   90.0   33.333333333333336
-450.0   90.0   16.666666666666668
-450.0   120.0   16.666666666666668
-500.0   120.0   16.666666666666668
-450.0   120.0   33.333333333333336
-500.0   90.0   33.333333333333336
-500.0   120.0   33.333333333333336
-450.0   120.0   33.333333333333336
-500.0   120.0   16.666666666666668
-500.0   90.0   33.333333333333336
-450.0   120.0   33.333333333333336
-450.0   90.0   33.333333333333336
-450.0   90.0   16.666666666666668
-500.0   90.0   33.333333333333336
-450.0   120.0   33.333333333333336
-450.0   90.0   16.666666666666668
-500.0   120.0   16.666666666666668
-500.0   90.0   33.333333333333336
-450.0   90.0   33.333333333333336
-500.0   120.0   33.333333333333336
-500.0   90.0   50.0
-450.0   90.0   33.333333333333336
-450.0   120.0   33.333333333333336
-500.0   120.0   33.333333333333336
-450.0   120.0   50.0
-500.0   90.0   50.0
-500.0   120.0   50.0
-450.0   120.0   50.0
-500.0   120.0   33.333333333333336
-500.0   90.0   50.0
-450.0   120.0   50.0
-450.0   90.0   50.0
-450.0   90.0   33.333333333333336
-500.0   90.0   50.0
-450.0   120.0   50.0
-450.0   90.0   33.333333333333336
-500.0   120.0   33.333333333333336
-500.0   120.0   0.0
-450.0   120.0   0.0
-500.0   150.0   0.0
-500.0   120.0   16.666666666666668
-450.0   120.0   0.0
-450.0   150.0   0.0
-500.0   150.0   0.0
-450.0   150.0   16.666666666666668
-500.0   120.0   16.666666666666668
-500.0   150.0   16.666666666666668
-450.0   150.0   16.666666666666668
-500.0   150.0   0.0
-500.0   120.0   16.666666666666668
-450.0   150.0   16.666666666666668
-450.0   120.0   16.666666666666668
-450.0   120.0   0.0
-500.0   120.0   16.666666666666668
-450.0   150.0   16.666666666666668
-450.0   120.0   0.0
-500.0   150.0   0.0
-500.0   120.0   16.666666666666668
-450.0   120.0   16.666666666666668
-500.0   150.0   16.666666666666668
-500.0   120.0   33.333333333333336
-450.0   120.0   16.666666666666668
-450.0   150.0   16.666666666666668
-500.0   150.0   16.666666666666668
-450.0   150.0   33.333333333333336
-500.0   120.0   33.333333333333336
-500.0   150.0   33.333333333333336
-450.0   150.0   33.333333333333336
-500.0   150.0   16.666666666666668
-500.0   120.0   33.333333333333336
-450.0   150.0   33.333333333333336
-450.0   120.0   33.333333333333336
-450.0   120.0   16.666666666666668
-500.0   120.0   33.333333333333336
-450.0   150.0   33.333333333333336
-450.0   120.0   16.666666666666668
-500.0   150.0   16.666666666666668
-500.0   120.0   33.333333333333336
-450.0   120.0   33.333333333333336
-500.0   150.0   33.333333333333336
-500.0   120.0   50.0
-450.0   120.0   33.333333333333336
-450.0   150.0   33.333333333333336
-500.0   150.0   33.333333333333336
-450.0   150.0   50.0
-500.0   120.0   50.0
-500.0   150.0   50.0
-450.0   150.0   50.0
-500.0   150.0   33.333333333333336
-500.0   120.0   50.0
-450.0   150.0   50.0
-450.0   120.0   50.0
-450.0   120.0   33.333333333333336
-500.0   120.0   50.0
-450.0   150.0   50.0
-450.0   120.0   33.333333333333336
-500.0   150.0   33.333333333333336
-450.0   0.0   0.0
-400.0   0.0   0.0
-450.0   30.0   0.0
-450.0   0.0   16.666666666666668
-400.0   0.0   0.0
-400.0   30.0   0.0
-450.0   30.0   0.0
-400.0   30.0   16.666666666666668
-450.0   0.0   16.666666666666668
-450.0   30.0   16.666666666666668
-400.0   30.0   16.666666666666668
-450.0   30.0   0.0
-450.0   0.0   16.666666666666668
-400.0   30.0   16.666666666666668
-400.0   0.0   16.666666666666668
-400.0   0.0   0.0
-450.0   0.0   16.666666666666668
-400.0   30.0   16.666666666666668
-400.0   0.0   0.0
-450.0   30.0   0.0
-450.0   0.0   16.666666666666668
-400.0   0.0   16.666666666666668
-450.0   30.0   16.666666666666668
[...]
          <PointData>  
             <DataArray type="Float64" NumberOfComponents="3" Name="Strains" format="ascii">   
-3.804594846542185e-05   0.0   -2.512614045984622e-05
-3.804594846542185e-05   0.0   -2.512614045984622e-05
-3.804594846542185e-05   0.0   -2.512614045984622e-05
-3.804594846542185e-05   0.0   -2.512614045984622e-05
-2.41938915931929e-05   4.193993296948787e-06   4.770169720379132e-07
-2.41938915931929e-05   4.193993296948787e-06   4.770169720379132e-07
-2.41938915931929e-05   4.193993296948787e-06   4.770169720379132e-07
-2.41938915931929e-05   4.193993296948787e-06   4.770169720379132e-07
-2.3704772803599355e-05   0.0   -2.3734733555814873e-05
-2.3704772803599355e-05   0.0   -2.3734733555814873e-05
-2.3704772803599355e-05   0.0   -2.3734733555814873e-05
-2.3704772803599355e-05   0.0   -2.3734733555814873e-05
-3.980372581660243e-05   5.042914426638783e-06   7.110614320709108e-08
-3.980372581660243e-05   5.042914426638783e-06   7.110614320709108e-08
-3.980372581660243e-05   5.042914426638783e-06   7.110614320709108e-08
-3.980372581660243e-05   5.042914426638783e-06   7.110614320709108e-08
-3.0875360634510554e-05   1.1595057533594567e-06   -1.2479457289645109e-05
-3.0875360634510554e-05   1.1595057533594567e-06   -1.2479457289645109e-05
-3.0875360634510554e-05   1.1595057533594567e-06   -1.2479457289645109e-05
-3.0875360634510554e-05   1.1595057533594567e-06   -1.2479457289645109e-05
-3.9803725816602504e-05   0.0   -2.6760482211798152e-05
-3.9803725816602504e-05   0.0   -2.6760482211798152e-05
-3.9803725816602504e-05   0.0   -2.6760482211798152e-05
-3.9803725816602504e-05   0.0   -2.6760482211798152e-05
-2.3704772803599355e-05   5.04291442663879e-06   3.0968547991903664e-06
-2.3704772803599355e-05   5.04291442663879e-06   3.0968547991903664e-06
-2.3704772803599355e-05   5.04291442663879e-06   3.0968547991903664e-06
-2.3704772803599355e-05   5.04291442663879e-06   3.0968547991903664e-06
-2.3760117061587843e-05   0.0   -2.431257908917812e-05
-2.3760117061587843e-05   0.0   -2.431257908917812e-05
-2.3760117061587843e-05   0.0   -2.431257908917812e-05
-2.3760117061587843e-05   0.0   -2.431257908917812e-05
-4.103291281029346e-05   5.405421547778584e-06   1.2321608966642147e-06
-4.103291281029346e-05   5.405421547778584e-06   1.2321608966642147e-06
-4.103291281029346e-05   5.405421547778584e-06   1.2321608966642147e-06
-4.103291281029346e-05   5.405421547778584e-06   1.2321608966642147e-06
-3.1781921439095116e-05   2.039919268850022e-06   -1.2166856687975894e-05
-3.1781921439095116e-05   2.039919268850022e-06   -1.2166856687975894e-05
-3.1781921439095116e-05   2.039919268850022e-06   -1.2166856687975894e-05
-3.1781921439095116e-05   2.039919268850022e-06   -1.2166856687975894e-05
-4.1032912810293534e-05   0.0   -2.7555832017845275e-05
-4.1032912810293534e-05   0.0   -2.7555832017845275e-05
-4.1032912810293534e-05   0.0   -2.7555832017845275e-05
-4.1032912810293534e-05   0.0   -2.7555832017845275e-05
-2.3760117061587843e-05   5.4054215477785904e-06   4.475413825331357e-06
-2.3760117061587843e-05   5.4054215477785904e-06   4.475413825331357e-06
-2.3760117061587843e-05   5.4054215477785904e-06   4.475413825331357e-06
-2.3760117061587843e-05   5.4054215477785904e-06   4.475413825331357e-06
-2.3734656170004782e-05   0.0   -2.4462876940899326e-05
-2.3734656170004782e-05   0.0   -2.4462876940899326e-05
-2.3734656170004782e-05   0.0   -2.4462876940899326e-05
-2.3734656170004782e-05   0.0   -2.4462876940899326e-05
-4.3692340060062596e-05   6.166310537511045e-06   5.100143220023842e-06
-4.3692340060062596e-05   6.166310537511045e-06   5.100143220023842e-06
-4.3692340060062596e-05   6.166310537511045e-06   5.100143220023842e-06
-4.3692340060062596e-05   6.166310537511045e-06   5.100143220023842e-06
-3.23837844901491e-05   2.5774625641216217e-06   -1.1594140612464981e-05
-3.23837844901491e-05   2.5774625641216217e-06   -1.1594140612464981e-05
-3.23837844901491e-05   2.5774625641216217e-06   -1.1594140612464981e-05
-3.23837844901491e-05   2.5774625641216217e-06   -1.1594140612464981e-05
-2.4193891593192942e-05   0.0   -2.2609744481676946e-05
-2.4193891593192942e-05   0.0   -2.2609744481676946e-05
-2.4193891593192942e-05   0.0   -2.2609744481676946e-05
-2.4193891593192942e-05   0.0   -2.2609744481676946e-05
-1.1031336526616418e-05   1.5341847438444045e-06   2.4835814225721597e-07
-1.1031336526616418e-05   1.5341847438444045e-06   2.4835814225721597e-07
-1.1031336526616418e-05   1.5341847438444045e-06   2.4835814225721597e-07
-1.1031336526616418e-05   1.5341847438444045e-06   2.4835814225721597e-07
-1.0598567858864075e-05   0.0   -2.2420106294875695e-05
-1.0598567858864075e-05   0.0   -2.2420106294875695e-05
-1.0598567858864075e-05   0.0   -2.2420106294875695e-05
-1.0598567858864075e-05   0.0   -2.2420106294875695e-05
-2.3704772803599355e-05   2.1910454348986343e-06   -1.8910586479227467e-06
-2.3704772803599355e-05   2.1910454348986343e-06   -1.8910586479227467e-06
-2.3704772803599355e-05   2.1910454348986343e-06   -1.8910586479227467e-06
-2.3704772803599355e-05   2.1910454348986343e-06   -1.8910586479227467e-06
-1.7396229726028477e-05   1.5803182233438027e-07   -1.1185488943002236e-05
-1.7396229726028477e-05   1.5803182233438027e-07   -1.1185488943002236e-05
-1.7396229726028477e-05   1.5803182233438027e-07   -1.1185488943002236e-05
-1.7396229726028477e-05   1.5803182233438027e-07   -1.1185488943002236e-05
-2.3704772803599334e-05   0.0   -2.3734733555814853e-05
-2.3704772803599334e-05   0.0   -2.3734733555814853e-05
-2.3704772803599334e-05   0.0   -2.3734733555814853e-05
-2.3704772803599334e-05   0.0   -2.3734733555814853e-05
-1.0598567858864075e-05   2.1910454348986343e-06   -5.764313869835681e-07
-1.0598567858864075e-05   2.1910454348986343e-06   -5.764313869835681e-07
-1.0598567858864075e-05   2.1910454348986343e-06   -5.764313869835681e-07
-1.0598567858864075e-05   2.1910454348986343e-06   -5.764313869835681e-07
-1.0350807716188937e-05   0.0   -2.269915936769492e-05
-1.0350807716188937e-05   0.0   -2.269915936769492e-05
-1.0350807716188937e-05   0.0   -2.269915936769492e-05
-1.0350807716188937e-05   0.0   -2.269915936769492e-05
-2.3760117061587843e-05   2.6890328691386725e-06   -1.9637301801799455e-06
-2.3760117061587843e-05   2.6890328691386725e-06   -1.9637301801799455e-06
-2.3760117061587843e-05   2.6890328691386725e-06   -1.9637301801799455e-06
-2.3760117061587843e-05   2.6890328691386725e-06   -1.9637301801799455e-06
-1.7027790259894112e-05   8.629784900999598e-07   -1.2088642222246176e-05
-1.7027790259894112e-05   8.629784900999598e-07   -1.2088642222246176e-05
-1.7027790259894112e-05   8.629784900999598e-07   -1.2088642222246176e-05
-1.7027790259894112e-05   8.629784900999598e-07   -1.2088642222246176e-05
-2.3760117061587843e-05   0.0   -2.431257908917812e-05
-2.3760117061587843e-05   0.0   -2.431257908917812e-05
-2.3760117061587843e-05   0.0   -2.431257908917812e-05
-2.3760117061587843e-05   0.0   -2.431257908917812e-05
-1.0350807716188937e-05   2.6890328691386725e-06   -3.5031045869674674e-07
-1.0350807716188937e-05   2.6890328691386725e-06   -3.5031045869674674e-07
-1.0350807716188937e-05   2.6890328691386725e-06   -3.5031045869674674e-07
-1.0350807716188937e-05   2.6890328691386725e-06   -3.5031045869674674e-07
-1.0123301742570337e-05   0.0   -2.2583837067842613e-05
-1.0123301742570337e-05   0.0   -2.2583837067842613e-05
-1.0123301742570337e-05   0.0   -2.2583837067842613e-05
-1.0123301742570337e-05   0.0   -2.2583837067842613e-05
-2.373465617000472e-05   3.1317331217611482e-06   -1.77728622850858e-06
-2.373465617000472e-05   3.1317331217611482e-06   -1.77728622850858e-06
-2.373465617000472e-05   3.1317331217611482e-06   -1.77728622850858e-06
-2.373465617000472e-05   3.1317331217611482e-06   -1.77728622850858e-06
-1.6941709402079085e-05   1.4406183511129108e-06   -1.2084195312662443e-05
-1.6941709402079085e-05   1.4406183511129108e-06   -1.2084195312662443e-05
-1.6941709402079085e-05   1.4406183511129108e-06   -1.2084195312662443e-05
-1.6941709402079085e-05   1.4406183511129108e-06   -1.2084195312662443e-05
-1.1031336526616439e-05   0.0   -2.1689233635370306e-05
-1.1031336526616439e-05   0.0   -2.1689233635370306e-05
-1.1031336526616439e-05   0.0   -2.1689233635370306e-05
-1.1031336526616439e-05   0.0   -2.1689233635370306e-05
1.3949707477914556e-06   -1.9956753938009148e-07   -1.098462034985183e-06
1.3949707477914556e-06   -1.9956753938009148e-07   -1.098462034985183e-06
1.3949707477914556e-06   -1.9956753938009148e-07   -1.098462034985183e-06
1.3949707477914556e-06   -1.9956753938009148e-07   -1.098462034985183e-06
1.6765405963479919e-06   0.0   -2.2186247333192485e-05
1.6765405963479919e-06   0.0   -2.2186247333192485e-05
1.6765405963479919e-06   0.0   -2.2186247333192485e-05
1.6765405963479919e-06   0.0   -2.2186247333192485e-05
-1.0598567858864075e-05   3.897649361385525e-07   -1.961592202855578e-06
-1.0598567858864075e-05   3.897649361385525e-07   -1.961592202855578e-06
-1.0598567858864075e-05   3.897649361385525e-07   -1.961592202855578e-06
-1.0598567858864075e-05   3.897649361385525e-07   -1.961592202855578e-06
-4.677397965134212e-06   -4.141780815185491e-07   -1.1347842881811044e-05
-4.677397965134212e-06   -4.141780815185491e-07   -1.1347842881811044e-05
-4.677397965134212e-06   -4.141780815185491e-07   -1.1347842881811044e-05
-4.677397965134212e-06   -4.141780815185491e-07   -1.1347842881811044e-05
-1.0598567858864075e-05   0.0   -2.2420106294875695e-05
-1.0598567858864075e-05   0.0   -2.2420106294875695e-05
-1.0598567858864075e-05   0.0   -2.2420106294875695e-05
-1.0598567858864075e-05   0.0   -2.2420106294875695e-05
1.6765405963479949e-06   3.897649361385525e-07   -1.7277332411724417e-06
1.6765405963479949e-06   3.897649361385525e-07   -1.7277332411724417e-06
1.6765405963479949e-06   3.897649361385525e-07   -1.7277332411724417e-06
1.6765405963479949e-06   3.897649361385525e-07   -1.7277332411724417e-06
1.900294351637463e-06   0.0   -2.2153622868980487e-05
1.900294351637463e-06   0.0   -2.2153622868980487e-05
1.900294351637463e-06   0.0   -2.2153622868980487e-05
1.900294351637463e-06   0.0   -2.2153622868980487e-05
-1.035080771618892e-05   9.092274978573251e-07   -2.2806559213175778e-06
-1.035080771618892e-05   9.092274978573251e-07   -2.2806559213175778e-06
-1.035080771618892e-05   9.092274978573251e-07   -2.2806559213175778e-06
-1.035080771618892e-05   9.092274978573251e-07   -2.2806559213175778e-06
-4.349136753613305e-06   2.2206952157930853e-07   -1.1871146073176818e-05
-4.349136753613305e-06   2.2206952157930853e-07   -1.1871146073176818e-05
-4.349136753613305e-06   2.2206952157930853e-07   -1.1871146073176818e-05
-4.349136753613305e-06   2.2206952157930853e-07   -1.1871146073176818e-05
-1.0350807716188937e-05   0.0   -2.269915936769492e-05
-1.0350807716188937e-05   0.0   -2.269915936769492e-05
-1.0350807716188937e-05   0.0   -2.269915936769492e-05
-1.0350807716188937e-05   0.0   -2.269915936769492e-05
1.9002943516374662e-06   9.092274978573251e-07   -1.735119422603188e-06
1.9002943516374662e-06   9.092274978573251e-07   -1.735119422603188e-06
1.9002943516374662e-06   9.092274978573251e-07   -1.735119422603188e-06
1.9002943516374662e-06   9.092274978573251e-07   -1.735119422603188e-06
2.1975361480569998e-06   0.0   -2.1677709060048214e-05
2.1975361480569998e-06   0.0   -2.1677709060048214e-05
2.1975361480569998e-06   0.0   -2.1677709060048214e-05
2.1975361480569998e-06   0.0   -2.1677709060048214e-05
-1.0123301742570328e-05   1.5102133463239692e-06   -2.0491072501303806e-06
-1.0123301742570328e-05   1.5102133463239692e-06   -2.0491072501303806e-06
-1.0123301742570328e-05   1.5102133463239692e-06   -2.0491072501303806e-06
-1.0123301742570328e-05   1.5102133463239692e-06   -2.0491072501303806e-06
-4.0766357840659604e-06   8.512085897055557e-07   -1.1731480993666607e-05
-4.0766357840659604e-06   8.512085897055557e-07   -1.1731480993666607e-05
-4.0766357840659604e-06   8.512085897055557e-07   -1.1731480993666607e-05
-4.0766357840659604e-06   8.512085897055557e-07   -1.1731480993666607e-05
1.3949707477914581e-06   0.0   -2.180897415899836e-05
1.3949707477914581e-06   0.0   -2.180897415899836e-05
1.3949707477914581e-06   0.0   -2.180897415899836e-05
1.3949707477914581e-06   0.0   -2.180897415899836e-05
1.4893329481920879e-05   -1.7468960589475072e-06   -3.598472374844788e-07
1.4893329481920879e-05   -1.7468960589475072e-06   -3.598472374844788e-07
1.4893329481920879e-05   -1.7468960589475072e-06   -3.598472374844788e-07
1.4893329481920879e-05   -1.7468960589475072e-06   -3.598472374844788e-07
1.493404020612286e-05   0.0   -2.2974458247248e-05
1.493404020612286e-05   0.0   -2.2974458247248e-05
1.493404020612286e-05   0.0   -2.2974458247248e-05
1.493404020612286e-05   0.0   -2.2974458247248e-05
1.6765405963479976e-06   -1.3136848567590575e-06   -9.041465023446296e-08
1.6765405963479976e-06   -1.3136848567590575e-06   -9.041465023446296e-08
1.6765405963479976e-06   -1.3136848567590575e-06   -9.041465023446296e-08
1.6765405963479976e-06   -1.3136848567590575e-06   -9.041465023446296e-08
8.16450547695716e-06   -9.712367402080321e-07   -1.1109158321180337e-05
8.16450547695716e-06   -9.712367402080321e-07   -1.1109158321180337e-05
8.16450547695716e-06   -9.712367402080321e-07   -1.1109158321180337e-05
8.16450547695716e-06   -9.712367402080321e-07   -1.1109158321180337e-05
1.6765405963479976e-06   0.0   -2.2186247333192563e-05
1.6765405963479976e-06   0.0   -2.2186247333192563e-05
1.6765405963479976e-06   0.0   -2.2186247333192563e-05
1.6765405963479976e-06   0.0   -2.2186247333192563e-05
1.493404020612286e-05   -1.3136848567590575e-06   -8.786255642899008e-07
1.493404020612286e-05   -1.3136848567590575e-06   -8.786255642899008e-07
1.493404020612286e-05   -1.3136848567590575e-06   -8.786255642899008e-07
1.493404020612286e-05   -1.3136848567590575e-06   -8.786255642899008e-07
1.4882341193301416e-05   0.0   -2.2646493588348748e-05
1.4882341193301416e-05   0.0   -2.2646493588348748e-05
1.4882341193301416e-05   0.0   -2.2646493588348748e-05
1.4882341193301416e-05   0.0   -2.2646493588348748e-05
1.9002943516374662e-06   -8.214511989470378e-07   -5.168781328739444e-07
1.9002943516374662e-06   -8.214511989470378e-07   -5.168781328739444e-07
1.9002943516374662e-06   -8.214511989470378e-07   -5.168781328739444e-07
1.9002943516374662e-06   -8.214511989470378e-07   -5.168781328739444e-07
8.279440894824706e-06   -3.835385459634866e-07   -1.1411536629976132e-05
8.279440894824706e-06   -3.835385459634866e-07   -1.1411536629976132e-05
8.279440894824706e-06   -3.835385459634866e-07   -1.1411536629976132e-05
8.279440894824706e-06   -3.835385459634866e-07   -1.1411536629976132e-05
1.9002943516374645e-06   0.0   -2.2153622868980507e-05
1.9002943516374645e-06   0.0   -2.2153622868980507e-05
1.9002943516374645e-06   0.0   -2.2153622868980507e-05
1.9002943516374645e-06   0.0   -2.2153622868980507e-05
1.4882341193301416e-05   -8.214511989470378e-07   -1.0097488522421689e-06
1.4882341193301416e-05   -8.214511989470378e-07   -1.0097488522421689e-06
1.4882341193301416e-05   -8.214511989470378e-07   -1.0097488522421689e-06
1.4882341193301416e-05   -8.214511989470378e-07   -1.0097488522421689e-06
1.5182348856749997e-05   0.0   -2.1774156812794797e-05
1.5182348856749997e-05   0.0   -2.1774156812794797e-05
1.5182348856749997e-05   0.0   -2.1774156812794797e-05
1.5182348856749997e-05   0.0   -2.1774156812794797e-05
2.1975361480570036e-06   -1.6074625457757427e-07   -3.63545455599315e-08
2.1975361480570036e-06   -1.6074625457757427e-07   -3.63545455599315e-08
2.1975361480570036e-06   -1.6074625457757427e-07   -3.63545455599315e-08
2.1975361480570036e-06   -1.6074625457757427e-07   -3.63545455599315e-08
8.541321604193726e-06   3.1622171348810605e-07   -1.0895511086627202e-05
8.541321604193726e-06   3.1622171348810605e-07   -1.0895511086627202e-05
8.541321604193726e-06   3.1622171348810605e-07   -1.0895511086627202e-05
8.541321604193726e-06   3.1622171348810605e-07   -1.0895511086627202e-05
1.4893329481920879e-05   0.0   -2.2857111794366863e-05
1.4893329481920879e-05   0.0   -2.2857111794366863e-05
1.4893329481920879e-05   0.0   -2.2857111794366863e-05
1.4893329481920879e-05   0.0   -2.2857111794366863e-05
3.3699046355806486e-05   -4.437945085597121e-06   5.822982610751066e-06
3.3699046355806486e-05   -4.437945085597121e-06   5.822982610751066e-06
3.3699046355806486e-05   -4.437945085597121e-06   5.822982610751066e-06
3.3699046355806486e-05   -4.437945085597121e-06   5.822982610751066e-06
3.166732381246463e-05   0.0   -2.5235540413052773e-05
3.166732381246463e-05   0.0   -2.5235540413052773e-05
3.166732381246463e-05   0.0   -2.5235540413052773e-05
3.166732381246463e-05   0.0   -2.5235540413052773e-05
1.493404020612286e-05   -3.7684702763412947e-06   4.914347763321613e-06
1.493404020612286e-05   -3.7684702763412947e-06   4.914347763321613e-06
1.493404020612286e-05   -3.7684702763412947e-06   4.914347763321613e-06
1.493404020612286e-05   -3.7684702763412947e-06   4.914347763321613e-06
2.3280326647192755e-05   -1.982023848904926e-06   -1.0067997494923348e-05
2.3280326647192755e-05   -1.982023848904926e-06   -1.0067997494923348e-05
2.3280326647192755e-05   -1.982023848904926e-06   -1.0067997494923348e-05
2.3280326647192755e-05   -1.982023848904926e-06   -1.0067997494923348e-05
1.4934040206122846e-05   0.0   -2.297445824724798e-05
1.4934040206122846e-05   0.0   -2.297445824724798e-05
1.4934040206122846e-05   0.0   -2.297445824724798e-05
1.4934040206122846e-05   0.0   -2.297445824724798e-05
3.166732381246452e-05   -3.768470276341281e-06   2.653265597516829e-06
3.166732381246452e-05   -3.768470276341281e-06   2.653265597516829e-06
3.166732381246452e-05   -3.768470276341281e-06   2.653265597516829e-06
3.166732381246452e-05   -3.768470276341281e-06   2.653265597516829e-06
3.073595362254898e-05   0.0   -2.4711014126057333e-05
3.073595362254898e-05   0.0   -2.4711014126057333e-05
3.073595362254898e-05   0.0   -2.4711014126057333e-05
3.073595362254898e-05   0.0   -2.4711014126057333e-05
1.4882341193301416e-05   -3.4408675628476464e-06   3.776193793730523e-06
1.4882341193301416e-05   -3.4408675628476464e-06   3.776193793730523e-06
1.4882341193301416e-05   -3.4408675628476464e-06   3.776193793730523e-06
1.4882341193301416e-05   -3.4408675628476464e-06   3.776193793730523e-06
2.2834996914335905e-05   -1.447129899007781e-06   -1.0674475006297548e-05
2.2834996914335905e-05   -1.447129899007781e-06   -1.0674475006297548e-05
2.2834996914335905e-05   -1.447129899007781e-06   -1.0674475006297548e-05
2.2834996914335905e-05   -1.447129899007781e-06   -1.0674475006297548e-05
1.4882341193301416e-05   0.0   -2.2646493588348748e-05
1.4882341193301416e-05   0.0   -2.2646493588348748e-05
1.4882341193301416e-05   0.0   -2.2646493588348748e-05
1.4882341193301416e-05   0.0   -2.2646493588348748e-05
3.073595362254888e-05   -3.440867562847626e-06   1.7116732560219276e-06
3.073595362254888e-05   -3.440867562847626e-06   1.7116732560219276e-06
3.073595362254888e-05   -3.440867562847626e-06   1.7116732560219276e-06
3.073595362254888e-05   -3.440867562847626e-06   1.7116732560219276e-06
2.93408354186807e-05   0.0   -2.3373452197185947e-05
2.93408354186807e-05   0.0   -2.3373452197185947e-05
2.93408354186807e-05   0.0   -2.3373452197185947e-05
2.93408354186807e-05   0.0   -2.3373452197185947e-05
1.5182348856749997e-05   -2.6654923073186524e-06   1.8233207904231177e-06
1.5182348856749997e-05   -2.6654923073186524e-06   1.8233207904231177e-06
1.5182348856749997e-05   -2.6654923073186524e-06   1.8233207904231177e-06
1.5182348856749997e-05   -2.6654923073186524e-06   1.8233207904231177e-06
2.2111588305991083e-05   -6.057988406977013e-07   -1.0961227704951248e-05
2.2111588305991083e-05   -6.057988406977013e-07   -1.0961227704951248e-05
2.2111588305991083e-05   -6.057988406977013e-07   -1.0961227704951248e-05
2.2111588305991083e-05   -6.057988406977013e-07   -1.0961227704951248e-05
-3.2894396921759885e-05   4.1939932969487805e-06   -2.1687064399752272e-05