<?xml version="1.0"?> 
<VTKFile type="UnstructuredGrid"> 
   <UnstructuredGrid> 
      <Piece NumberOfPoints="6000"  NumberOfCells="1500">  
          <Points>  
             <DataArray type="Float64" NumberOfComponents="3" format="ascii">   
-500.0   0.0   0.0
-450.0   0.0   0.0
-500.0   30.0   0.0
-500.0   0.0   16.666666666666668
-450.0   0.0   0.0
-450.0   30.0   0.0
-500.0   30.0   0.0
-450.0   30.0   16.666666666666668
-500.0   0.0   16.666666666666668
-500.0   30.0   16.666666666666668
-450.0   30.0   16.666666666666668
-500.0   30.0   0.0
-500.0   0.0   16.666666666666668
-450.0   30.0   16.666666666666668
-450.0   0.0   16.666666666666668
-450.0   0.0   0.0
-500.0   0.0   16.666666666666668
-450.0   30.0   16.666666666666668
-450.0   0.0   0.0
-500.0   30.0   0.0
-500.0   0.0   16.666666666666668
-450.0   0.0   16.666666666666668
-500.0   30.0   16.666666666666668
-500.0   0.0   33.333333333333336
-450.0   0.0   16.666666666666668
-450.0   30.0   16.666666666666668
-500.0   30.0   16.666666666666668
-450.0   30.0   33.333333333333336
-500.0   0.0   33.333333333333336
-500.0   30.0   33.333333333333336
-450.0   30.0   33.333333333333336
-500.0   30.0   16.666666666666668
-500.0   0.0   33.333333333333336
-450.0   30.0   33.333333333333336
-450.0   0.0   33.333333333333336
-450.0   0.0   16.666666666666668
-500.0   0.0   33.333333333333336
-450.0   30.0   33.333333333333336
-450.0   0.0   16.666666666666668
-500.0   30.0   16.666666666666668
-500.0   0.0   33.333333333333336
-450.0   0.0   33.333333333333336
-500.0   30.0   33.333333333333336
-500.0   0.0   50.0
-450.0   0.0   33.333333333333336
-450.0   30.0   33.333333333333336
-500.0   30.0   33.333333333333336
-450.0   30.0   50.0
-500.0   0.0   50.0
-500.0   30.0   50.0
-450.0   30.0   50.0
-500.0   30.0   33.333333333333336
-500.0   0.0   50.0
-450.0   30.0   50.0
-450.0   0.0   50.0
-450.0   0.0   33.333333333333336
-500.0   0.0   50.0
-450.0   30.0   50.0
-450.0   0.0   33.333333333333336
-500.0   30.0   33.333333333333336
-500.0   30.0   0.0
-450.0   30.0   0.0
-500.0   60.0   0.0
-500.0   30.0   16.666666666666668
-450.0   30.0   0.0
-450.0   60.0   0.0
-500.0   60.0   0.0
-450.0   60.0   16.666666666666668
-500.0   30.0   16.666666666666668
-500.0   60.0   16.666666666666668
-450.0   60.0   16.666666666666668
-500.0   60.0   0.0
-500.0   30.0   16.666666666666668
-450.0   60.0   16.666666666666668
-450.0   30.0   16.666666666666668
-450.0   30.0   0.0
-500.0   30.0   16.666666666666668
-450.0   60.0   16.666666666666668
-450.0   30.0   0.0
-500.0   60.0   0.0
-500.0   30.0   16.666666666666668
-450.0   30.0   16.666666666666668
-500.0   60.0   16.666666666666668
-500.0   30.0   33.333333333333336
-450.0   30.0   16.666666666666668
-450.0   60.0   16.666666666666668
-500.0   60.0   16.666666666666668
-450.0   60.0   33.333333333333336
-500.0   30.0   33.333333333333336
-500.0   60.0   33.333333333333336
-450.0   60.0   33.333333333333336
-500.0   60.0   16.666666666666668
-500.0   30.0   33.333333333333336
-450.0   60.0   33.333333333333336
-450.0   30.0   33.333333333333336
-450.0   30.0   16.666666666666668
-500.0   30.0   33.333333333333336
-450.0   60.0   33.333333333333336
-450.0   30.0   16.666666666666668
-500.0   60.0   16.666666666666668
-500.0   30.0   33.333333333333336
-450.0   30.0   33.333333333333336
-500.0   60.0   33.333333333333336
-500.0   30.0   50.0
-450.0   30.0   33.333333333333336
-450.0   60.0   33.333333333333336
-500.0   60.0   33.333333333333336
-450.0   60.0   50.0
-500.0   30.0   50.0
-500.0   60.0   50.0
-450.0   60.0   50.0
-500.0   60.0   33.333333333333336
-500.0   30.0   50.0
-450.0   60.0   50.0
-450.0   30.0   50.0
-450.0   30.0   33.333333333333336
-500.0   30.0   50.0
-450.0   60.0   50.0
-450.0   30.0   33.333333333333336
-500.0   60.0   33.333333333333336
-500.0   60.0   0.0
-450.0   60.0   0.0
-500.0   90.0   0.0
-500.0   60.0   16.666666666666668
-450.0   60.0   0.0
-450.0   90.0   0.0
-500.0   90.0   0.0
-450.0   90.0   16.666666666666668
-500.0   60.0   16.666666666666668
-500.0   90.0   16.666666666666668
-450.0   90.0   16.666666666666668
-500.0   90.0   0.0
-500.0   60.0   16.666666666666668
-450.0   90.0   16.666666666666668
-450.0   60.0   16.666666666666668
-450.0   60.0   0.0
-500.0   60.0   16.666666666666668
-450.0   90.0   16.666666666666668
-450.0   60.0   0.0
-500.0   90.0   0.0
-500.0   60.0   16.666666666666668
-450.0   60.0   16.666666666666668
-500.0   90.0   16.666666666666668
-500.0   60.0   33.333333333333336
-450.0   60.0   16.666666666666668
-450.0   90.0   16.666666666666668
-500.0   90.0   16.666666666666668
-450.0   90.0   33.333333333333336
-500.0   60.0   33.333333333333336
-500.0   90.0   33.333333333333336
-450.0   90.0   33.333333333333336
-500.0   90.0   16.666666666666668
-500.0   60.0   33.333333333333336
-450.0   90.0   33.333333333333336
-450.0   60.0   33.333333333333336
-450.0   60.0   16.666666666666668
-500.0   60.0   33.333333333333336
-450.0   90.0   33.333333333333336
-450.0   60.0   16.666666666666668
-500.0   90.0   16.666666666666668
-500.0   60.0   33.333333333333336
-450.0   60.0   33.333333333333336
-500.0   90.0   33.333333333333336
-500.0   60.0   50.0
-450.0   60.0   33.333333333333336
-450.0   90.0   33.333333333333336
-500.0   90.0   33.333333333333336
-450.0   90.0   50.0
-500.0   60.0   50.0
-500.0   90.0   50.0
-450.0   90.0   50.0
-500.0   90.0   33.333333333333336
-500.0   60.0   50.0
-450.0   90.0   50.0
-450.0   60.0   50.0
-450.0   60.0   33.333333333333336
-500.0   60.0   50.0
-450.0   90.0   50.0
-450.0   60.0   33.333333333333336
-500.0   90.0   33.333333333333336
-500.0   90.0   0.0
-450.0   90.0   0.0
-500.0   120.0   0.0
-500.0   90.0   16.666666666666668
-450.0   90.0   0.0
-450.0   120.0   0.0
-500.0   120.0   0.0
-450.0   120.0   16.666666666666668
-500.0   90.0   16.666666666666668
-500.0   120.0   16.666666666666668
-450.0   120.0   16.666666666666668
-500.0   120.0   0.0
-500.0   90.0   16.666666666666668
-450.0   120.0   16.666666666666668
-450.0   90.0   16.666666666666668
-450.0   90.0   0.0
-500.0   90.0   16.666666666666668
-450.0   120.0   16.666666666666668
-450.0   90.0   0.0
-500.0   120.0   0.0
-500.0   90.0   16.666666666666668
-450.0   90.0   16.666666666666668
-500.0   120.0   16.666666666666668
-500.0   90.0   33.333333333333336
-450.0   90.0   16.666666666666668
-450.0   120.0   16.666666666666668
-500.0   120.0   16.666666666666668
-450.0   120.0   33.333333333333336
-500.0   90.0   33.333333333333336
-500.0   120.0   33.333333333333336
-450.0   120.0   33.333333333333336
-500.0   120.0   16.666666666666668
-500.0   90.0   33.333333333333336
-450.0   120.0   33.333333333333336
-450.0   90.0   33.333333333333336
-450.0   90.0   16.666666666666668
-500.0   90.0   33.333333333333336
-450.0   120.0   33.333333333333336
-450.0   90.0   16.666666666666668
-500.0   120.0   16.666666666666668
-500.0   90.0   33.333333333333336
-450.0   90.0   33.333333333333336
-500.0   120.0   33.333333333333336
-500.0   90.0   50.0
-450.0   90.0   33.333333333333336
-450.0   120.0   33.333333333333336
-500.0   120.0   33.333333333333336
-450.0   120.0   50.0
-500.0   90.0   50.0
-500.0   120.0   50.0
-450.0   120.0   50.0
-500.0   120.0   33.333333333333336
-500.0   90.0   50.0
-450.0   120.0   50.0
-450.0   90.0   50.0
-450.0   90.0   33.333333333333336
-500.0   90.0   50.0
-450.0   120.0   50.0
-450.0   90.0   33.333333333333336
-500.0   120.0   33.333333333333336
-500.0   120.0   0.0
-450.0   120.0   0.0
-500.0   150.0   0.0
-500.0   120.0   16.666666666666668
-450.0   120.0   0.0
-450.0   150.0   0.0
-500.0   150.0   0.0
-450.0   150.0   16.666666666666668
-500.0   120.0   16.666666666666668
-500.0   150.0   16.666666666666668
-450.0   150.0   16.666666666666668
-500.0   150.0   0.0
-500.0   120.0   16.666666666666668
-450.0   150.0   16.666666666666668
-450.0   120.0   16.666666666666668
-450.0   120.0   0.0
-500.0   120.0   16.666666666666668
-450.0   150.0   16.666666666666668
-450.0   120.0   0.0
-500.0   150.0   0.0
-500.0   120.0   16.666666666666668
-450.0   120.0   16.666666666666668
-500.0   150.0   16.666666666666668
-500.0   120.0   33.333333333333336
-450.0   120.0   16.666666666666668
-450.0   150.0   16.666666666666668
-500.0   150.0   16.666666666666668
-450.0   150.0   33.333333333333336
-500.0   120.0   33.333333333333336
-500.0   150.0   33.333333333333336
-450.0   150.0   33.333333333333336
-500.0   150.0   16.666666666666668
-500.0   120.0   33.333333333333336
-450.0   150.0   33.333333333333336
-450.0   120.0   33.333333333333336
-450.0   120.0   16.666666666666668
-500.0   120.0   33.333333333333336
-450.0   150.0   33.333333333333336
-450.0   120.0   16.666666666666668
-500.0   150.0   16.666666666666668
-500.0   120.0   33.333333333333336
-450.0   120.0   33.333333333333336
-500.0   150.0   33.333333333333336
-500.0   120.0   50.0
-450.0   120.0   33.333333333333336
-450.0   150.0   33.333333333333336
-500.0   150.0   33.333333333333336
-450.0   150.0   50.0
-500.0   120.0   50.0
-500.0   150.0   50.0
-450.0   150.0   50.0
-500.0   150.0   33.333333333333336
-500.0   120.0   50.0
-450.0   150.0   50.0
-450.0   120.0   50.0
-450.0   120.0   33.333333333333336
-500.0   120.0   50.0
-450.0   150.0   50.0
-450.0   120.0   33.333333333333336
-500.0   150.0   33.333333333333336
-450.0   0.0   0.0
-400.0   0.0   0.0
-450.0   30.0   0.0
-450.0   0.0   16.666666666666668
-400.0   0.0   0.0
-400.0   30.0   0.0
-450.0   30.0   0.0
-400.0   30.0   16.666666666666668
-450.0   0.0   16.666666666666668
-450.0   30.0   16.666666666666668
-400.0   30.0   16.666666666666668
-450.0   30.0   0.0
-450.0   0.0   16.666666666666668
-400.0   30.0   16.666666666666668
-400.0   0.0   16.666666666666668
-400.0   0.0   0.0
-450.0   0.0   16.666666666666668
-400.0   30.0   16.666666666666668
-400.0   0.0   0.0
-450.0   30.0   0.0
-450.0   0.0   16.666666666666668
-400.0   0.0   16.666666666666668
-450.0   30.0   16.666666666666668
[...]
          <PointData>  
             <DataArray type="Float64" NumberOfComponents="3" Name="Strains" format="ascii">   
-1.301156881172063e-05   0.0   -8.765400633043181e-06
-1.301156881172063e-05   0.0   -8.765400633043181e-06
-1.301156881172063e-05   0.0   -8.765400633043181e-06
-1.301156881172063e-05   0.0   -8.765400633043181e-06
-8.257168956739957e-06   1.4114596980913763e-06   5.474944112747652e-09
-8.257168956739957e-06   1.4114596980913763e-06   5.474944112747652e-09
-8.257168956739957e-06   1.4114596980913763e-06   5.474944112747652e-09
-8.257168956739957e-06   1.4114596980913763e-06   5.474944112747652e-09
-8.078434054843979e-06   0.0   -8.302558785151764e-06
-8.078434054843979e-06   0.0   -8.302558785151764e-06
-8.078434054843979e-06   0.0   -8.302558785151764e-06
-8.078434054843979e-06   0.0   -8.302558785151764e-06
-1.3598135785058582e-05   1.7081239535860762e-06   -1.279302736123651e-07
-1.3598135785058582e-05   1.7081239535860762e-06   -1.279302736123651e-07
-1.3598135785058582e-05   1.7081239535860762e-06   -1.279302736123651e-07
-1.3598135785058582e-05   1.7081239535860762e-06   -1.279302736123651e-07
-1.0545001433282287e-05   3.8570153990951533e-07   -4.423034078366919e-06
-1.0545001433282287e-05   3.8570153990951533e-07   -4.423034078366919e-06
-1.0545001433282287e-05   3.8570153990951533e-07   -4.423034078366919e-06
-1.0545001433282287e-05   3.8570153990951533e-07   -4.423034078366919e-06
-1.3598135785058606e-05   0.0   -9.327433157303412e-06
-1.3598135785058606e-05   0.0   -9.327433157303412e-06
-1.3598135785058606e-05   0.0   -9.327433157303412e-06
-1.3598135785058606e-05   0.0   -9.327433157303412e-06
-8.078434054843979e-06   1.7081239535860813e-06   8.969440985392817e-07
-8.078434054843979e-06   1.7081239535860813e-06   8.969440985392817e-07
-8.078434054843979e-06   1.7081239535860813e-06   8.969440985392817e-07
-8.078434054843979e-06   1.7081239535860813e-06   8.969440985392817e-07
-8.084526561204616e-06   0.0   -8.50128391685774e-06
-8.084526561204616e-06   0.0   -8.50128391685774e-06
-8.084526561204616e-06   0.0   -8.50128391685774e-06
-8.084526561204616e-06   0.0   -8.50128391685774e-06
-1.4002413926501023e-05   1.8338924872244602e-06   2.615261996349645e-07
-1.4002413926501023e-05   1.8338924872244602e-06   2.615261996349645e-07
-1.4002413926501023e-05   1.8338924872244602e-06   2.615261996349645e-07
-1.4002413926501023e-05   1.8338924872244602e-06   2.615261996349645e-07
-1.0841331173131592e-05   6.884577003713923e-07   -4.319684183868906e-06
-1.0841331173131592e-05   6.884577003713923e-07   -4.319684183868906e-06
-1.0841331173131592e-05   6.884577003713923e-07   -4.319684183868906e-06
-1.0841331173131592e-05   6.884577003713923e-07   -4.319684183868906e-06
-1.4002413926501047e-05   0.0   -9.601619409192418e-06
-1.4002413926501047e-05   0.0   -9.601619409192418e-06
-1.4002413926501047e-05   0.0   -9.601619409192418e-06
-1.4002413926501047e-05   0.0   -9.601619409192418e-06
-8.084526561204616e-06   1.8338924872244636e-06   1.3618616919696423e-06
-8.084526561204616e-06   1.8338924872244636e-06   1.3618616919696423e-06
-8.084526561204616e-06   1.8338924872244636e-06   1.3618616919696423e-06
-8.084526561204616e-06   1.8338924872244636e-06   1.3618616919696423e-06
-8.06146274317621e-06   0.0   -8.554980204904685e-06
-8.06146274317621e-06   0.0   -8.554980204904685e-06
-8.06146274317621e-06   0.0   -8.554980204904685e-06
-8.06146274317621e-06   0.0   -8.554980204904685e-06
-1.4889903526822305e-05   2.1013426913186026e-06   1.564948819714353e-06
-1.4889903526822305e-05   2.1013426913186026e-06   1.564948819714353e-06
-1.4889903526822305e-05   2.1013426913186026e-06   1.564948819714353e-06
-1.4889903526822305e-05   2.1013426913186026e-06   1.564948819714353e-06
-1.103193833483861e-05   8.72199336906443e-07   -4.127507154277842e-06
-1.103193833483861e-05   8.72199336906443e-07   -4.127507154277842e-06
-1.103193833483861e-05   8.72199336906443e-07   -4.127507154277842e-06
-1.103193833483861e-05   8.72199336906443e-07   -4.127507154277842e-06
-8.257168956739972e-06   0.0   -7.918524814188355e-06
-8.257168956739972e-06   0.0   -7.918524814188355e-06
-8.257168956739972e-06   0.0   -7.918524814188355e-06
-8.257168956739972e-06   0.0   -7.918524814188355e-06
-3.779660286466252e-06   5.118849063727981e-07   -1.4887941990847963e-07
-3.779660286466252e-06   5.118849063727981e-07   -1.4887941990847963e-07
-3.779660286466252e-06   5.118849063727981e-07   -1.4887941990847963e-07
-3.779660286466252e-06   5.118849063727981e-07   -1.4887941990847963e-07
-3.618956973313578e-06   0.0   -7.859375196557739e-06
-3.618956973313578e-06   0.0   -7.859375196557739e-06
-3.618956973313578e-06   0.0   -7.859375196557739e-06
-3.618956973313578e-06   0.0   -7.859375196557739e-06
-8.078434054843979e-06   7.386393143233727e-07   -8.700969826010967e-07
-8.078434054843979e-06   7.386393143233727e-07   -8.700969826010967e-07
-8.078434054843979e-06   7.386393143233727e-07   -8.700969826010967e-07
-8.078434054843979e-06   7.386393143233727e-07   -8.700969826010967e-07
-5.938062965026764e-06   4.929134802551354e-08   -4.0237733525177085e-06
-5.938062965026764e-06   4.929134802551354e-08   -4.0237733525177085e-06
-5.938062965026764e-06   4.929134802551354e-08   -4.0237733525177085e-06
-5.938062965026764e-06   4.929134802551354e-08   -4.0237733525177085e-06
-8.078434054843972e-06   0.0   -8.302558785151755e-06
-8.078434054843972e-06   0.0   -8.302558785151755e-06
-8.078434054843972e-06   0.0   -8.302558785151755e-06
-8.078434054843972e-06   0.0   -8.302558785151755e-06
-3.618956973313578e-06   7.386393143233727e-07   -4.269133940070729e-07
-3.618956973313578e-06   7.386393143233727e-07   -4.269133940070729e-07
-3.618956973313578e-06   7.386393143233727e-07   -4.269133940070729e-07
-3.618956973313578e-06   7.386393143233727e-07   -4.269133940070729e-07
-3.521878548586421e-06   0.0   -7.954580018646636e-06
-3.521878548586421e-06   0.0   -7.954580018646636e-06
-3.521878548586421e-06   0.0   -7.954580018646636e-06
-3.521878548586421e-06   0.0   -7.954580018646636e-06
-8.084526561204616e-06   9.111731636851734e-07   -8.968705624940832e-07
-8.084526561204616e-06   9.111731636851734e-07   -8.968705624940832e-07
-8.084526561204616e-06   9.111731636851734e-07   -8.968705624940832e-07
-8.084526561204616e-06   9.111731636851734e-07   -8.968705624940832e-07
-5.800156301715189e-06   2.8998230542093837e-07   -4.3314398133512206e-06
-5.800156301715189e-06   2.8998230542093837e-07   -4.3314398133512206e-06
-5.800156301715189e-06   2.8998230542093837e-07   -4.3314398133512206e-06
-5.800156301715189e-06   2.8998230542093837e-07   -4.3314398133512206e-06
-8.084526561204616e-06   0.0   -8.50128391685774e-06
-8.084526561204616e-06   0.0   -8.50128391685774e-06
-8.084526561204616e-06   0.0   -8.50128391685774e-06
-8.084526561204616e-06   0.0   -8.50128391685774e-06
-3.521878548586421e-06   9.111731636851734e-07   -3.5016666428298e-07
-3.521878548586421e-06   9.111731636851734e-07   -3.5016666428298e-07
-3.521878548586421e-06   9.111731636851734e-07   -3.5016666428298e-07
-3.521878548586421e-06   9.111731636851734e-07   -3.5016666428298e-07
-3.4307239270428397e-06   0.0   -7.91645108939641e-06
-3.4307239270428397e-06   0.0   -7.91645108939641e-06
-3.4307239270428397e-06   0.0   -7.91645108939641e-06
-3.4307239270428397e-06   0.0   -7.91645108939641e-06
-8.061462743176188e-06   1.0642151925137771e-06   -8.37082178015734e-07
-8.061462743176188e-06   1.0642151925137771e-06   -8.37082178015734e-07
-8.061462743176188e-06   1.0642151925137771e-06   -8.37082178015734e-07
-8.061462743176188e-06   1.0642151925137771e-06   -8.37082178015734e-07
-5.757625244123726e-06   4.873606895511023e-07   -4.330698641325595e-06
-5.757625244123726e-06   4.873606895511023e-07   -4.330698641325595e-06
-5.757625244123726e-06   4.873606895511023e-07   -4.330698641325595e-06
-5.757625244123726e-06   4.873606895511023e-07   -4.330698641325595e-06
-3.7796602864662583e-06   0.0   -7.611393870364675e-06
-3.7796602864662583e-06   0.0   -7.611393870364675e-06
-3.7796602864662583e-06   0.0   -7.611393870364675e-06
-3.7796602864662583e-06   0.0   -7.611393870364675e-06
4.3648036146275304e-07   -6.993256020089791e-08   -6.264523266035213e-07
4.3648036146275304e-07   -6.993256020089791e-08   -6.264523266035213e-07
4.3648036146275304e-07   -6.993256020089791e-08   -6.264523266035213e-07
4.3648036146275304e-07   -6.993256020089791e-08   -6.264523266035213e-07
5.46793819325947e-07   0.0   -7.77965874256047e-06
5.46793819325947e-07   0.0   -7.77965874256047e-06
5.46793819325947e-07   0.0   -7.77965874256047e-06
5.46793819325947e-07   0.0   -7.77965874256047e-06
-3.618956973313578e-06   1.328607566620693e-07   -9.16457208825195e-07
-3.618956973313578e-06   1.328607566620693e-07   -9.16457208825195e-07
-3.618956973313578e-06   1.328607566620693e-07   -9.16457208825195e-07
-3.618956973313578e-06   1.328607566620693e-07   -9.16457208825195e-07
-1.616433233570152e-06   -1.4022072682985169e-07   -4.0901478849690706e-06
-1.616433233570152e-06   -1.4022072682985169e-07   -4.0901478849690706e-06
-1.616433233570152e-06   -1.4022072682985169e-07   -4.0901478849690706e-06
-1.616433233570152e-06   -1.4022072682985169e-07   -4.0901478849690706e-06
-3.618956973313578e-06   0.0   -7.859375196557739e-06
-3.618956973313578e-06   0.0   -7.859375196557739e-06
-3.618956973313578e-06   0.0   -7.859375196557739e-06
-3.618956973313578e-06   0.0   -7.859375196557739e-06
5.467938193259479e-07   1.328607566620676e-07   -8.367407548279521e-07
5.467938193259479e-07   1.328607566620676e-07   -8.367407548279521e-07
5.467938193259479e-07   1.328607566620676e-07   -8.367407548279521e-07
5.467938193259479e-07   1.328607566620676e-07   -8.367407548279521e-07
6.360661970020518e-07   0.0   -7.767247078738068e-06
6.360661970020518e-07   0.0   -7.767247078738068e-06
6.360661970020518e-07   0.0   -7.767247078738068e-06
6.360661970020518e-07   0.0   -7.767247078738068e-06
-3.521878548586415e-06   3.1222156651425725e-07   -1.0246721093325122e-06
-3.521878548586415e-06   3.1222156651425725e-07   -1.0246721093325122e-06
-3.521878548586415e-06   3.1222156651425725e-07   -1.0246721093325122e-06
-3.521878548586415e-06   3.1222156651425725e-07   -1.0246721093325122e-06
-1.4914453881557625e-06   7.677343151638148e-08   -4.2674584957182154e-06
-1.4914453881557625e-06   7.677343151638148e-08   -4.2674584957182154e-06
-1.4914453881557625e-06   7.677343151638148e-08   -4.2674584957182154e-06
-1.4914453881557625e-06   7.677343151638148e-08   -4.2674584957182154e-06
-3.521878548586421e-06   0.0   -7.954580018646636e-06
-3.521878548586421e-06   0.0   -7.954580018646636e-06
-3.521878548586421e-06   0.0   -7.954580018646636e-06
-3.521878548586421e-06   0.0   -7.954580018646636e-06
6.360661970020529e-07   3.1222156651425725e-07   -8.37339169423959e-07
6.360661970020529e-07   3.1222156651425725e-07   -8.37339169423959e-07
6.360661970020529e-07   3.1222156651425725e-07   -8.37339169423959e-07
6.360661970020529e-07   3.1222156651425725e-07   -8.37339169423959e-07
7.506422246992452e-07   0.0   -7.605066232057106e-06
7.506422246992452e-07   0.0   -7.605066232057106e-06
7.506422246992452e-07   0.0   -7.605066232057106e-06
7.506422246992452e-07   0.0   -7.605066232057106e-06
-3.4307239270428367e-06   5.189747622321626e-07   -9.47507503159601e-07
-3.4307239270428367e-06   5.189747622321626e-07   -9.47507503159601e-07
-3.4307239270428367e-06   5.189747622321626e-07   -9.47507503159601e-07
-3.4307239270428367e-06   5.189747622321626e-07   -9.47507503159601e-07
-1.385618161943585e-06   2.9126148882459687e-07   -4.219389147613811e-06
-1.385618161943585e-06   2.9126148882459687e-07   -4.219389147613811e-06
-1.385618161943585e-06   2.9126148882459687e-07   -4.219389147613811e-06
-1.385618161943585e-06   2.9126148882459687e-07   -4.219389147613811e-06
4.364803614627538e-07   0.0   -7.653353406485214e-06
4.364803614627538e-07   0.0   -7.653353406485214e-06
4.364803614627538e-07   0.0   -7.653353406485214e-06
4.364803614627538e-07   0.0   -7.653353406485214e-06
5.027236771108303e-06   -5.89731464718518e-07   -3.5593160257373896e-07
5.027236771108303e-06   -5.89731464718518e-07   -3.5593160257373896e-07
5.027236771108303e-06   -5.89731464718518e-07   -3.5593160257373896e-07
5.027236771108303e-06   -5.89731464718518e-07   -3.5593160257373896e-07
5.057065175192095e-06   0.0   -8.043583758752416e-06
5.057065175192095e-06   0.0   -8.043583758752416e-06
5.057065175192095e-06   0.0   -8.043583758752416e-06
5.057065175192095e-06   0.0   -8.043583758752416e-06
5.467938193259488e-07   -4.398750269865313e-07   -2.6253981611692246e-07
5.467938193259488e-07   -4.398750269865313e-07   -2.6253981611692246e-07
5.467938193259488e-07   -4.398750269865313e-07   -2.6253981611692246e-07
5.467938193259488e-07   -4.398750269865313e-07   -2.6253981611692246e-07
2.7467727683274244e-06   -3.251919602226675e-07   -3.997981237844362e-06
2.7467727683274244e-06   -3.251919602226675e-07   -3.997981237844362e-06
2.7467727683274244e-06   -3.251919602226675e-07   -3.997981237844362e-06
2.7467727683274244e-06   -3.251919602226675e-07   -3.997981237844362e-06
5.467938193259488e-07   0.0   -7.779658742560498e-06
5.467938193259488e-07   0.0   -7.779658742560498e-06
5.467938193259488e-07   0.0   -7.779658742560498e-06
5.467938193259488e-07   0.0   -7.779658742560498e-06
5.057065175192095e-06   -4.398750269865313e-07   -5.264648323088404e-07
5.057065175192095e-06   -4.398750269865313e-07   -5.264648323088404e-07
5.057065175192095e-06   -4.398750269865313e-07   -5.264648323088404e-07
5.057065175192095e-06   -4.398750269865313e-07   -5.264648323088404e-07
5.053408354963851e-06   0.0   -7.928874072279419e-06
5.053408354963851e-06   0.0   -7.928874072279419e-06
5.053408354963851e-06   0.0   -7.928874072279419e-06
5.053408354963851e-06   0.0   -7.928874072279419e-06
6.360661970020529e-07   -2.6937832256889554e-07   -4.0501014880175195e-07
6.360661970020529e-07   -2.6937832256889554e-07   -4.0501014880175195e-07
6.360661970020529e-07   -2.6937832256889554e-07   -4.0501014880175195e-07
6.360661970020529e-07   -2.6937832256889554e-07   -4.0501014880175195e-07
2.8001010871448997e-06   -1.2434610809910094e-07   -4.098754294388371e-06
2.8001010871448997e-06   -1.2434610809910094e-07   -4.098754294388371e-06
2.8001010871448997e-06   -1.2434610809910094e-07   -4.098754294388371e-06
2.8001010871448997e-06   -1.2434610809910094e-07   -4.098754294388371e-06
6.360661970020524e-07   0.0   -7.767247078738075e-06
6.360661970020524e-07   0.0   -7.767247078738075e-06
6.360661970020524e-07   0.0   -7.767247078738075e-06
6.360661970020524e-07   0.0   -7.767247078738075e-06
5.053408354963851e-06   -2.6937832256889554e-07   -5.666371423430891e-07
5.053408354963851e-06   -2.6937832256889554e-07   -5.666371423430891e-07
5.053408354963851e-06   -2.6937832256889554e-07   -5.666371423430891e-07
5.053408354963851e-06   -2.6937832256889554e-07   -5.666371423430891e-07
5.168575062588589e-06   0.0   -7.629885727193959e-06
5.168575062588589e-06   0.0   -7.629885727193959e-06
5.168575062588589e-06   0.0   -7.629885727193959e-06
5.168575062588589e-06   0.0   -7.629885727193959e-06
7.506422246992466e-07   -4.136582522806463e-08   -2.418448355748822e-07
7.506422246992466e-07   -4.136582522806463e-08   -2.418448355748822e-07
7.506422246992466e-07   -4.136582522806463e-08   -2.418448355748822e-07
7.506422246992466e-07   -4.136582522806463e-08   -2.418448355748822e-07
2.902320629795319e-06   1.1446779295343593e-07   -3.921475681643901e-06
2.902320629795319e-06   1.1446779295343593e-07   -3.921475681643901e-06
2.902320629795319e-06   1.1446779295343593e-07   -3.921475681643901e-06
2.902320629795319e-06   1.1446779295343593e-07   -3.921475681643901e-06
5.027236771108303e-06   0.0   -8.007192285316326e-06
5.027236771108303e-06   0.0   -8.007192285316326e-06
5.027236771108303e-06   0.0   -8.007192285316326e-06
5.027236771108303e-06   0.0   -8.007192285316326e-06
1.1460153835278553e-05   -1.5090194608070286e-06   1.808924478483272e-06
1.1460153835278553e-05   -1.5090194608070286e-06   1.808924478483272e-06
1.1460153835278553e-05   -1.5090194608070286e-06   1.808924478483272e-06
1.1460153835278553e-05   -1.5090194608070286e-06   1.808924478483272e-06
1.0790067338670725e-05   0.0   -8.807325162907822e-06
1.0790067338670725e-05   0.0   -8.807325162907822e-06
1.0790067338670725e-05   0.0   -8.807325162907822e-06
1.0790067338670725e-05   0.0   -8.807325162907822e-06
5.057065175192095e-06   -1.2729023402590114e-06   1.5114198470453012e-06
5.057065175192095e-06   -1.2729023402590114e-06   1.5114198470453012e-06
5.057065175192095e-06   -1.2729023402590114e-06   1.5114198470453012e-06
5.057065175192095e-06   -1.2729023402590114e-06   1.5114198470453012e-06
7.908652054889513e-06   -6.667773979929151e-07   -3.6048999178100528e-06
7.908652054889513e-06   -6.667773979929151e-07   -3.6048999178100528e-06
7.908652054889513e-06   -6.667773979929151e-07   -3.6048999178100528e-06
7.908652054889513e-06   -6.667773979929151e-07   -3.6048999178100528e-06
5.057065175192091e-06   0.0   -8.04358375875241e-06
5.057065175192091e-06   0.0   -8.04358375875241e-06
5.057065175192091e-06   0.0   -8.04358375875241e-06
5.057065175192091e-06   0.0   -8.04358375875241e-06
1.0790067338670688e-05   -1.2729023402590063e-06   7.476784428898886e-07
1.0790067338670688e-05   -1.2729023402590063e-06   7.476784428898886e-07
1.0790067338670688e-05   -1.2729023402590063e-06   7.476784428898886e-07
1.0790067338670688e-05   -1.2729023402590063e-06   7.476784428898886e-07
1.048919491862083e-05   0.0   -8.624413389308762e-06
1.048919491862083e-05   0.0   -8.624413389308762e-06
1.048919491862083e-05   0.0   -8.624413389308762e-06
1.048919491862083e-05   0.0   -8.624413389308762e-06
5.053408354963851e-06   -1.1592321950489058e-06   1.130770200482208e-06
5.053408354963851e-06   -1.1592321950489058e-06   1.130770200482208e-06
5.053408354963851e-06   -1.1592321950489058e-06   1.130770200482208e-06
5.053408354963851e-06   -1.1592321950489058e-06   1.130770200482208e-06
7.773130046906457e-06   -4.840246921302899e-07   -3.807223787839971e-06
7.773130046906457e-06   -4.840246921302899e-07   -3.807223787839971e-06
7.773130046906457e-06   -4.840246921302899e-07   -3.807223787839971e-06
7.773130046906457e-06   -4.840246921302899e-07   -3.807223787839971e-06
5.053408354963851e-06   0.0   -7.928874072279419e-06
5.053408354963851e-06   0.0   -7.928874072279419e-06
5.053408354963851e-06   0.0   -7.928874072279419e-06
5.053408354963851e-06   0.0   -7.928874072279419e-06
1.0489194918620792e-05   -1.1592321950489008e-06   4.3523088345286446e-07
1.0489194918620792e-05   -1.1592321950489008e-06   4.3523088345286446e-07
1.0489194918620792e-05   -1.1592321950489008e-06   4.3523088345286446e-07
1.0489194918620792e-05   -1.1592321950489008e-06   4.3523088345286446e-07
1.0028698233516576e-05   0.0   -8.162694671000784e-06
1.0028698233516576e-05   0.0   -8.162694671000784e-06
1.0028698233516576e-05   0.0   -8.162694671000784e-06
1.0028698233516576e-05   0.0   -8.162694671000784e-06
5.168575062588589e-06   -8.880149063447342e-07   4.703195576860451e-07
5.168575062588589e-06   -8.880149063447342e-07   4.703195576860451e-07
5.168575062588589e-06   -8.880149063447342e-07   4.703195576860451e-07
5.168575062588589e-06   -8.880149063447342e-07   4.703195576860451e-07
7.541053294240222e-06   -1.9485049893448257e-07   -3.8997094728461535e-06
7.541053294240222e-06   -1.9485049893448257e-07   -3.8997094728461535e-06
7.541053294240222e-06   -1.9485049893448257e-07   -3.8997094728461535e-06
7.541053294240222e-06   -1.9485049893448257e-07   -3.8997094728461535e-06
-1.112216124684921e-05   1.4114596980913712e-06   -7.4477978580202845e-06
-1.112216124684921e-05   1.4114596980913712e-06   -7.4477978580202845e-06
-1.112216124684921e-05   1.4114596980913712e-06   -7.4477978580202845e-06
-1.112216124684921e-05   1.4114596980913712e-06   -7.4477978580202845e-06
-7.138690086179779e-06   1.2591770111732863e-06   -9.000488690554137e-07