<?xml version="1.0"?> 
<VTKFile type="UnstructuredGrid"> 
   <UnstructuredGrid> 
      <Piece NumberOfPoints="6000"  NumberOfCells="1500">  
          <Points>  
             <DataArray type="Float64" NumberOfComponents="3" format="ascii">   
-500.0   0.0   0.0
-450.0   0.0   0.0
-500.0   30.0   0.0
-500.0   0.0   16.666666666666668
-450.0   0.0   0.0
-450.0   30.0   0.0
-500.0   30.0   0.0
-450.0   30.0   16.666666666666668
-500.0   0.0   16.666666666666668
-500.0   30.0   16.666666666666668
-450.0   30.0   16.666666666666668
-500.0   30.0   0.0
-500.0   0.0   16.666666666666668
-450.0   30.0   16.666666666666668
-450.0   0.0   16.666666666666668
-450.0   0.0   0.0
-500.0   0.0   16.666666666666668
-450.0   30.0   16.666666666666668
-450.0   0.0   0.0
-500.0   30.0   0.0
-500.0   0.0   16.666666666666668
-450.0   0.0   16.666666666666668
-500.0   30.0   16.666666666666668
-500.0   0.0   33.333333333333336
-450.0   0.0   16.666666666666668
-450.0   30.0   16.666666666666668
-500.0   30.0   16.666666666666668
-450.0   30.0   33.333333333333336
-500.0   0.0   33.333333333333336
-500.0   30.0   33.333333333333336
-450.0   30.0   33.333333333333336
-500.0   30.0   16.666666666666668
-500.0   0.0   33.333333333333336
-450.0   30.0   33.333333333333336
-450.0   0.0   33.333333333333336
-450.0   0.0   16.666666666666668
-500.0   0.0   33.333333333333336
-450.0   30.0   33.333333333333336
-450.0   0.0   16.666666666666668
-500.0   30.0   16.666666666666668
-500.0   0.0   33.333333333333336
-450.0   0.0   33.333333333333336
-500.0   30.0   33.333333333333336
-500.0   0.0   50.0
-450.0   0.0   33.333333333333336
-450.0   30.0   33.333333333333336
-500.0   30.0   33.333333333333336
-450.0   30.0   50.0
-500.0   0.0   50.0
-500.0   30.0   50.0
-450.0   30.0   50.0
-500.0   30.0   33.333333333333336
-500.0   0.0   50.0
-450.0   30.0   50.0
-450.0   0.0   50.0
-450.0   0.0   33.333333333333336
-500.0   0.0   50.0
-450.0   30.0   50.0
-450.0   0.0   33.333333333333336
-500.0   30.0   33.333333333333336
-500.0   30.0   0.0
-450.0   30.0   0.0
-500.0   60.0   0.0
-500.0   30.0   16.666666666666668
-450.0   30.0   0.0
-450.0   60.0   0.0
-500.0   60.0   0.0
-450.0   60.0   16.666666666666668
-500.0   30.0   16.666666666666668
-500.0   60.0   16.666666666666668
-450.0   60.0   16.666666666666668
-500.0   60.0   0.0
-500.0   30.0   16.666666666666668
-450.0   60.0   16.666666666666668
-450.0   30.0   16.666666666666668
-450.0   30.0   0.0
-500.0   30.0   16.666666666666668
-450.0   60.0   16.666666666666668
-450.0   30.0   0.0
-500.0   60.0   0.0
-500.0   30.0   16.666666666666668
-450.0   30.0   16.666666666666668
-500.0   60.0   16.666666666666668
-500.0   30.0   33.333333333333336
-450.0   30.0   16.666666666666668
-450.0   60.0   16.666666666666668
-500.0   60.0   16.666666666666668
-450.0   60.0   33.333333333333336
-500.0   30.0   33.333333333333336
-500.0   60.0   33.333333333333336
-450.0   60.0   33.333333333333336
-500.0   60.0   16.666666666666668
-500.0   30.0   33.333333333333336
-450.0   60.0   33.333333333333336
-450.0   30.0   33.333333333333336
-450.0   30.0   16.666666666666668
-500.0   30.0   33.333333333333336
-450.0   60.0   33.333333333333336
-450.0   30.0   16.666666666666668
-500.0   60.0   16.666666666666668
-500.0   30.0   33.333333333333336
-450.0   30.0   33.333333333333336
-500.0   60.0   33.333333333333336
-500.0   30.0   50.0
-450.0   30.0   33.333333333333336
-450.0   60.0   33.333333333333336
-500.0   60.0   33.333333333333336
-450.0   60.0   50.0
-500.0   30.0   50.0
-500.0   60.0   50.0
-450.0   60.0   50.0
-500.0   60.0   33.333333333333336
-500.0   30.0   50.0
-450.0   60.0   50.0
-450.0   30.0   50.0
-450.0   30.0   33.333333333333336
-500.0   30.0   50.0
-450.0   60.0   50.0
-450.0   30.0   33.333333333333336
-500.0   60.0   33.333333333333336
-500.0   60.0   0.0
-450.0   60.0   0.0
-500.0   90.0   0.0
-500.0   60.0   16.666666666666668
-450.0   60.0   0.0
-450.0   90.0   0.0
-500.0   90.0   0.0
-450.0   90.0   16.666666666666668
-500.0   60.0   16.666666666666668
-500.0   90.0   16.666666666666668
-450.0   90.0   16.666666666666668
-500.0   90.0   0.0
-500.0   60.0   16.666666666666668
-450.0   90.0   16.666666666666668
-450.0   60.0   16.666666666666668
-450.0   60.0   0.0
-500.0   60.0   16.666666666666668
-450.0   90.0   16.666666666666668
-450.0   60.0   0.0
-500.0   90.0   0.0
-500.0   60.0   16.666666666666668
-450.0   60.0   16.666666666666668
-500.0   90.0   16.666666666666668
-500.0   60.0   33.333333333333336
-450.0   60.0   16.666666666666668
-450.0   90.0   16.666666666666668
-500.0   90.0   16.666666666666668
-450.0   90.0   33.333333333333336
-500.0   60.0   33.333333333333336
-500.0   90.0   33.333333333333336
-450.0   90.0   33.333333333333336
-500.0   90.0   16.666666666666668
-500.0   60.0   33.333333333333336
-450.0   90.0   33.333333333333336
-450.0   60.0   33.333333333333336
-450.0   60.0   16.666666666666668
-500.0   60.0   33.333333333333336
-450.0   90.0   33.333333333333336
-450.0   60.0   16.666666666666668
-500.0   90.0   16.666666666666668
-500.0   60.0   33.333333333333336
-450.0   60.0   33.333333333333336
-500.0   90.0   33.333333333333336
-500.0   60.0   50.0
-450.0   60.0   33.333333333333336
-450.0   90.0   33.333333333333336
-500.0   90.0   33.333333333333336
-450.0   90.0   50.0
-500.0   60.0   50.0
-500.0   90.0   50.0
-450.0   90.0   50.0
-500.0   90.0   33.333333333333336
-500.0   60.0   50.0
-450.0   90.0   50.0
-450.0   60.0   50.0
-450.0   60.0   33.333333333333336
-500.0   60.0   50.0
-450.0   90.0   50.0
-450.0   60.0   33.333333333333336
-500.0   90.0   33.333333333333336
-500.0   90.0   0.0
-450.0   90.0   0.0
-500.0   120.0   0.0
-500.0   90.0   16.666666666666668
-450.0   90.0   0.0
-450.0   120.0   0.0
-500.0   120.0   0.0
-450.0   120.0   16.666666666666668
-500.0   90.0   16.666666666666668
-500.0   120.0   16.666666666666668
-450.0   120.0   16.666666666666668
-500.0   120.0   0.0
-500.0   90.0   16.666666666666668
-450.0   120.0   16.666666666666668
-450.0   90.0   16.666666666666668
-450.0   90.0   0.0
-500.0   90.0   16.666666666666668
-450.0   120.0   16.666666666666668
-450.0   90.0   0.0
-500.0   120.0   0.0
-500.0   90.0   16.666666666666668
-450.0   90.0   16.666666666666668
-500.0   120.0   16.666666666666668
-500.0   90.0   33.333333333333336
-450.0   90.0   16.666666666666668
-450.0   120.0   16.666666666666668
-500.0   120.0   16.666666666666668
-450.0   120.0   33.333333333333336
-500.0   90.0   33.333333333333336
-500.0   120.0   33.333333333333336
-450.0   120.0   33.333333333333336
-500.0   120.0   16.666666666666668
-500.0   90.0   33.333333333333336
-450.0   120.0   33.333333333333336
-450.0   90.0   33.333333333333336
-450.0   90.0   16.666666666666668
-500.0   90.0   33.333333333333336
-450.0   120.0   33.333333333333336
-450.0   90.0   16.666666666666668
-500.0   120.0   16.666666666666668
-500.0   90.0   33.333333333333336
-450.0   90.0   33.333333333333336
-500.0   120.0   33.333333333333336
-500.0   90.0   50.0
-450.0   90.0   33.333333333333336
-450.0   120.0   33.333333333333336
-500.0   120.0   33.333333333333336
-450.0   120.0   50.0
-500.0   90.0   50.0
-500.0   120.0   50.0
-450.0   120.0   50.0
-500.0   120.0   33.333333333333336
-500.0   90.0   50.0
-450.0   120.0   50.0
-450.0   90.0   50.0
-450.0   90.0   33.333333333333336
-500.0   90.0   50.0
-450.0   120.0   50.0
-450.0   90.0   33.333333333333336
-500.0   120.0   33.333333333333336
-500.0   120.0   0.0
-450.0   120.0   0.0
-500.0   150.0   0.0
-500.0   120.0   16.666666666666668
-450.0   120.0   0.0
-450.0   150.0   0.0
-500.0   150.0   0.0
-450.0   150.0   16.666666666666668
-500.0   120.0   16.666666666666668
-500.0   150.0   16.666666666666668
-450.0   150.0   16.666666666666668
-500.0   150.0   0.0
-500.0   120.0   16.666666666666668
-450.0   150.0   16.666666666666668
-450.0   120.0   16.666666666666668
-450.0   120.0   0.0
-500.0   120.0   16.666666666666668
-450.0   150.0   16.666666666666668
-450.0   120.0   0.0
-500.0   150.0   0.0
-500.0   120.0   16.666666666666668
-450.0   120.0   16.666666666666668
-500.0   150.0   16.666666666666668
-500.0   120.0   33.333333333333336
-450.0   120.0   16.666666666666668
-450.0   150.0   16.666666666666668
-500.0   150.0   16.666666666666668
-450.0   150.0   33.333333333333336
-500.0   120.0   33.333333333333336
-500.0   150.0   33.333333333333336
-450.0   150.0   33.333333333333336
-500.0   150.0   16.666666666666668
-500.0   120.0   33.333333333333336
-450.0   150.0   33.333333333333336
-450.0   120.0   33.333333333333336
-450.0   120.0   16.666666666666668
-500.0   120.0   33.333333333333336
-450.0   150.0   33.333333333333336
-450.0   120.0   16.666666666666668
-500.0   150.0   16.666666666666668
-500.0   120.0   33.333333333333336
-450.0   120.0   33.333333333333336
-500.0   150.0   33.333333333333336
-500.0   120.0   50.0
-450.0   120.0   33.333333333333336
-450.0   150.0   33.333333333333336
-500.0   150.0   33.333333333333336
-450.0   150.0   50.0
-500.0   120.0   50.0
-500.0   150.0   50.0
-450.0   150.0   50.0
-500.0   150.0   33.333333333333336
-500.0   120.0   50.0
-450.0   150.0   50.0
-450.0   120.0   50.0
-450.0   120.0   33.333333333333336
-500.0   120.0   50.0
-450.0   150.0   50.0
-450.0   120.0   33.333333333333336
-500.0   150.0   33.333333333333336
-450.0   0.0   0.0
-400.0   0.0   0.0
-450.0   30.0   0.0
-450.0   0.0   16.666666666666668
-400.0   0.0   0.0
-400.0   30.0   0.0
-450.0   30.0   0.0
-400.0   30.0   16.666666666666668
-450.0   0.0   16.666666666666668
-450.0   30.0   16.666666666666668
-400.0   30.0   16.666666666666668
-450.0   30.0   0.0
-450.0   0.0   16.666666666666668
-400.0   30.0   16.666666666666668
-400.0   0.0   16.666666666666668
-400.0   0.0   0.0
-450.0   0.0   16.666666666666668
-400.0   30.0   16.666666666666668
-400.0   0.0   0.0
-450.0   30.0   0.0
-450.0   0.0   16.666666666666668
-400.0   0.0   16.666666666666668
-450.0   30.0   16.666666666666668
[...]
          <PointData>  
             <DataArray type="Float64" NumberOfComponents="3" Name="Strains" format="ascii">   
-0.0001256662772533763   0.0   -8.238872985365678e-05
-0.0001256662772533763   0.0   -8.238872985365678e-05
-0.0001256662772533763   0.0   -8.238872985365678e-05
-0.0001256662772533763   0.0   -8.238872985365678e-05
-7.99724208207784e-05   1.3932860892949676e-05   2.1274140697760137e-06
-7.99724208207784e-05   1.3932860892949676e-05   2.1274140697760137e-06
-7.99724208207784e-05   1.3932860892949676e-05   2.1274140697760137e-06
-7.99724208207784e-05   1.3932860892949676e-05   2.1274140697760137e-06
-7.839695842424315e-05   0.0   -7.774734525313569e-05
-7.839695842424315e-05   0.0   -7.774734525313569e-05
-7.839695842424315e-05   0.0   -7.774734525313569e-05
-7.839695842424315e-05   0.0   -7.774734525313569e-05
-0.00013152329092700596   1.671468108232322e-05   7.677336020753961e-07
-0.00013152329092700596   1.671468108232322e-05   7.677336020753961e-07
-0.00013152329092700596   1.671468108232322e-05   7.677336020753961e-07
-0.00013152329092700596   1.671468108232322e-05   7.677336020753961e-07
-0.00010203161783880955   3.8678205004342466e-06   -4.067693852911852e-05
-0.00010203161783880955   3.8678205004342466e-06   -4.067693852911852e-05
-0.00010203161783880955   3.8678205004342466e-06   -4.067693852911852e-05
-0.00010203161783880955   3.8678205004342466e-06   -4.067693852911852e-05
-0.00013152329092700618   0.0   -8.777615390252963e-05
-0.00013152329092700618   0.0   -8.777615390252963e-05
-0.00013152329092700618   0.0   -8.777615390252963e-05
-0.00013152329092700618   0.0   -8.777615390252963e-05
-7.839695842424315e-05   1.6714681082323246e-05   1.0796542251469322e-05
-7.839695842424315e-05   1.6714681082323246e-05   1.0796542251469322e-05
-7.839695842424315e-05   1.6714681082323246e-05   1.0796542251469322e-05
-7.839695842424315e-05   1.6714681082323246e-05   1.0796542251469322e-05
-7.8624683812929e-05   0.0   -7.96521121922994e-05
-7.8624683812929e-05   0.0   -7.96521121922994e-05
-7.8624683812929e-05   0.0   -7.96521121922994e-05
-7.8624683812929e-05   0.0   -7.96521121922994e-05
-0.0001356396589035669   1.7905773259717947e-05   4.629382336266677e-06
-0.0001356396589035669   1.7905773259717947e-05   4.629382336266677e-06
-0.0001356396589035669   1.7905773259717947e-05   4.629382336266677e-06
-0.0001356396589035669   1.7905773259717947e-05   4.629382336266677e-06
-0.0001050739873699674   6.770034758525178e-06   -3.96319604523501e-05
-0.0001050739873699674   6.770034758525178e-06   -3.96319604523501e-05
-0.0001050739873699674   6.770034758525178e-06   -3.96319604523501e-05
-0.0001050739873699674   6.770034758525178e-06   -3.96319604523501e-05
-0.00013563965890356713   0.0   -9.039557614813019e-05
-0.00013563965890356713   0.0   -9.039557614813019e-05
-0.00013563965890356713   0.0   -9.039557614813019e-05
-0.00013563965890356713   0.0   -9.039557614813019e-05
-7.8624683812929e-05   1.7905773259717974e-05   1.5372846292097478e-05
-7.8624683812929e-05   1.7905773259717974e-05   1.5372846292097478e-05
-7.8624683812929e-05   1.7905773259717974e-05   1.5372846292097478e-05
-7.8624683812929e-05   1.7905773259717974e-05   1.5372846292097478e-05
-7.859083316390445e-05   0.0   -8.01405155168805e-05
-7.859083316390445e-05   0.0   -8.01405155168805e-05
-7.859083316390445e-05   0.0   -8.01405155168805e-05
-7.859083316390445e-05   0.0   -8.01405155168805e-05
-0.00014450086792640332   2.0393697999184526e-05   1.7473323621107234e-05
-0.00014450086792640332   2.0393697999184526e-05   1.7473323621107234e-05
-0.00014450086792640332   2.0393697999184526e-05   1.7473323621107234e-05
-0.00014450086792640332   2.0393697999184526e-05   1.7473323621107234e-05
-0.0001071152460337356   8.545883859374735e-06   -3.772735771611969e-05
-0.0001071152460337356   8.545883859374735e-06   -3.772735771611969e-05
-0.0001071152460337356   8.545883859374735e-06   -3.772735771611969e-05
-0.0001071152460337356   8.545883859374735e-06   -3.772735771611969e-05
-7.997242082077855e-05   0.0   -7.402901331788696e-05
-7.997242082077855e-05   0.0   -7.402901331788696e-05
-7.997242082077855e-05   0.0   -7.402901331788696e-05
-7.997242082077855e-05   0.0   -7.402901331788696e-05
-3.641220336714219e-05   5.112234174994989e-06   1.6386896098372251e-06
-3.641220336714219e-05   5.112234174994989e-06   1.6386896098372251e-06
-3.641220336714219e-05   5.112234174994989e-06   1.6386896098372251e-06
-3.641220336714219e-05   5.112234174994989e-06   1.6386896098372251e-06
-3.502720595829082e-05   0.0   -7.33826651389885e-05
-3.502720595829082e-05   0.0   -7.33826651389885e-05
-3.502720595829082e-05   0.0   -7.33826651389885e-05
-3.502720595829082e-05   0.0   -7.33826651389885e-05
-7.839695842424315e-05   7.274466856911974e-06   -5.464424476548475e-06
-7.839695842424315e-05   7.274466856911974e-06   -5.464424476548475e-06
-7.839695842424315e-05   7.274466856911974e-06   -5.464424476548475e-06
-7.839695842424315e-05   7.274466856911974e-06   -5.464424476548475e-06
-5.749981338953458e-05   5.386234824153956e-07   -3.625149350969787e-05
-5.749981338953458e-05   5.386234824153956e-07   -3.625149350969787e-05
-5.749981338953458e-05   5.386234824153956e-07   -3.625149350969787e-05
-5.749981338953458e-05   5.386234824153956e-07   -3.625149350969787e-05
-7.839695842424309e-05   0.0   -7.774734525313562e-05
-7.839695842424309e-05   0.0   -7.774734525313562e-05
-7.839695842424309e-05   0.0   -7.774734525313562e-05
-7.839695842424309e-05   0.0   -7.774734525313562e-05
-3.502720595829082e-05   7.274466856911974e-06   -1.099744362401284e-06
-3.502720595829082e-05   7.274466856911974e-06   -1.099744362401284e-06
-3.502720595829082e-05   7.274466856911974e-06   -1.099744362401284e-06
-3.502720595829082e-05   7.274466856911974e-06   -1.099744362401284e-06
-3.42520598027976e-05   0.0   -7.430518708936382e-05
-3.42520598027976e-05   0.0   -7.430518708936382e-05
-3.42520598027976e-05   0.0   -7.430518708936382e-05
-3.42520598027976e-05   0.0   -7.430518708936382e-05
-7.8624683812929e-05   8.911541838225963e-06   -5.697738842080409e-06
-7.8624683812929e-05   8.911541838225963e-06   -5.697738842080409e-06
-7.8624683812929e-05   8.911541838225963e-06   -5.697738842080409e-06
-7.8624683812929e-05   8.911541838225963e-06   -5.697738842080409e-06
-5.632450911352026e-05   2.8684651364765495e-06   -3.923885065337832e-05
-5.632450911352026e-05   2.8684651364765495e-06   -3.923885065337832e-05
-5.632450911352026e-05   2.8684651364765495e-06   -3.923885065337832e-05
-5.632450911352026e-05   2.8684651364765495e-06   -3.923885065337832e-05
-7.8624683812929e-05   0.0   -7.96521121922994e-05
-7.8624683812929e-05   0.0   -7.96521121922994e-05
-7.8624683812929e-05   0.0   -7.96521121922994e-05
-7.8624683812929e-05   0.0   -7.96521121922994e-05
-3.42520598027976e-05   8.911541838225963e-06   -3.508137391448351e-07
-3.42520598027976e-05   8.911541838225963e-06   -3.508137391448351e-07
-3.42520598027976e-05   8.911541838225963e-06   -3.508137391448351e-07
-3.42520598027976e-05   8.911541838225963e-06   -3.508137391448351e-07
-3.354732409691625e-05   0.0   -7.391968799240427e-05
-3.354732409691625e-05   0.0   -7.391968799240427e-05
-3.354732409691625e-05   0.0   -7.391968799240427e-05
-3.354732409691625e-05   0.0   -7.391968799240427e-05
-7.859083316390425e-05   1.0368045874126946e-05   -5.0680004052334636e-06
-7.859083316390425e-05   1.0368045874126946e-05   -5.0680004052334636e-06
-7.859083316390425e-05   1.0368045874126946e-05   -5.0680004052334636e-06
-7.859083316390425e-05   1.0368045874126946e-05   -5.0680004052334636e-06
-5.60860039549226e-05   4.7770201665792205e-06   -3.9221433662341215e-05
-5.60860039549226e-05   4.7770201665792205e-06   -3.9221433662341215e-05
-5.60860039549226e-05   4.7770201665792205e-06   -3.9221433662341215e-05
-5.60860039549226e-05   4.7770201665792205e-06   -3.9221433662341215e-05
-3.641220336714225e-05   0.0   -7.096167281288997e-05
-3.641220336714225e-05   0.0   -7.096167281288997e-05
-3.641220336714225e-05   0.0   -7.096167281288997e-05
-3.641220336714225e-05   0.0   -7.096167281288997e-05
4.74968709994172e-06   -6.532899665072486e-07   -2.7504960143209564e-06
4.74968709994172e-06   -6.532899665072486e-07   -2.7504960143209564e-06
4.74968709994172e-06   -6.532899665072486e-07   -2.7504960143209564e-06
4.74968709994172e-06   -6.532899665072486e-07   -2.7504960143209564e-06
5.630654315925139e-06   0.0   -7.26093074004045e-05
5.630654315925139e-06   0.0   -7.26093074004045e-05
5.630654315925139e-06   0.0   -7.26093074004045e-05
5.630654315925139e-06   0.0   -7.26093074004045e-05
-3.502720595829082e-05   1.2889295643062445e-06   -5.61956468196187e-06
-3.502720595829082e-05   1.2889295643062445e-06   -5.61956468196187e-06
-3.502720595829082e-05   1.2889295643062445e-06   -5.61956468196187e-06
-3.502720595829082e-05   1.2889295643062445e-06   -5.61956468196187e-06
-1.539077452560852e-05   -1.3730288229289766e-06   -3.6749775370757756e-05
-1.539077452560852e-05   -1.3730288229289766e-06   -3.6749775370757756e-05
-1.539077452560852e-05   -1.3730288229289766e-06   -3.6749775370757756e-05
-1.539077452560852e-05   -1.3730288229289766e-06   -3.6749775370757756e-05
-3.502720595829082e-05   0.0   -7.33826651389885e-05
-3.502720595829082e-05   0.0   -7.33826651389885e-05
-3.502720595829082e-05   0.0   -7.33826651389885e-05
-3.502720595829082e-05   0.0   -7.33826651389885e-05
5.6306543159251486e-06   1.288929564306231e-06   -4.846206943378106e-06
5.6306543159251486e-06   1.288929564306231e-06   -4.846206943378106e-06
5.6306543159251486e-06   1.288929564306231e-06   -4.846206943378106e-06
5.6306543159251486e-06   1.288929564306231e-06   -4.846206943378106e-06
6.325092892861566e-06   0.0   -7.250593813482888e-05
6.325092892861566e-06   0.0   -7.250593813482888e-05
6.325092892861566e-06   0.0   -7.250593813482888e-05
6.325092892861566e-06   0.0   -7.250593813482888e-05
-3.425205980279754e-05   2.99874825755802e-06   -6.676599263265199e-06
-3.425205980279754e-05   2.99874825755802e-06   -6.676599263265199e-06
-3.425205980279754e-05   2.99874825755802e-06   -6.676599263265199e-06
-3.425205980279754e-05   2.99874825755802e-06   -6.676599263265199e-06
-1.4351056532714623e-05   7.306058367995727e-07   -3.848405259428173e-05
-1.4351056532714623e-05   7.306058367995727e-07   -3.848405259428173e-05
-1.4351056532714623e-05   7.306058367995727e-07   -3.848405259428173e-05
-1.4351056532714623e-05   7.306058367995727e-07   -3.848405259428173e-05
-3.42520598027976e-05   0.0   -7.430518708936382e-05
-3.42520598027976e-05   0.0   -7.430518708936382e-05
-3.42520598027976e-05   0.0   -7.430518708936382e-05
-3.42520598027976e-05   0.0   -7.430518708936382e-05
6.325092892861577e-06   2.99874825755802e-06   -4.877350308730402e-06
6.325092892861577e-06   2.99874825755802e-06   -4.877350308730402e-06
6.325092892861577e-06   2.99874825755802e-06   -4.877350308730402e-06
6.325092892861577e-06   2.99874825755802e-06   -4.877350308730402e-06
7.261664879809476e-06   0.0   -7.093195895801705e-05
7.261664879809476e-06   0.0   -7.093195895801705e-05
7.261664879809476e-06   0.0   -7.093195895801705e-05
7.261664879809476e-06   0.0   -7.093195895801705e-05
-3.354732409691622e-05   4.979548390645253e-06   -5.904706364528043e-06
-3.354732409691622e-05   4.979548390645253e-06   -5.904706364528043e-06
-3.354732409691622e-05   4.979548390645253e-06   -5.904706364528043e-06
-3.354732409691622e-05   4.979548390645253e-06   -5.904706364528043e-06
-1.349519746149403e-05   2.8110234427888655e-06   -3.8023802454851176e-05
-1.349519746149403e-05   2.8110234427888655e-06   -3.8023802454851176e-05
-1.349519746149403e-05   2.8110234427888655e-06   -3.8023802454851176e-05
-1.349519746149403e-05   2.8110234427888655e-06   -3.8023802454851176e-05
4.749687099941728e-06   0.0   -7.135364679279432e-05
4.749687099941728e-06   0.0   -7.135364679279432e-05
4.749687099941728e-06   0.0   -7.135364679279432e-05
4.749687099941728e-06   0.0   -7.135364679279432e-05
4.942465396976468e-05   -5.796972138748932e-06   -3.7355195967203765e-07
4.942465396976468e-05   -5.796972138748932e-06   -3.7355195967203765e-07
4.942465396976468e-05   -5.796972138748932e-06   -3.7355195967203765e-07
4.942465396976468e-05   -5.796972138748932e-06   -3.7355195967203765e-07
4.950345281438052e-05   0.0   -7.523251895698248e-05
4.950345281438052e-05   0.0   -7.523251895698248e-05
4.950345281438052e-05   0.0   -7.523251895698248e-05
4.950345281438052e-05   0.0   -7.523251895698248e-05
5.630654315925159e-06   -4.3720192609628925e-06   5.120234303541851e-07
5.630654315925159e-06   -4.3720192609628925e-06   5.120234303541851e-07
5.630654315925159e-06   -4.3720192609628925e-06   5.120234303541851e-07
5.630654315925159e-06   -4.3720192609628925e-06   5.120234303541851e-07
2.7126569957161122e-05   -3.232393470156812e-06   -3.599827811285605e-05
2.7126569957161122e-05   -3.232393470156812e-06   -3.599827811285605e-05
2.7126569957161122e-05   -3.232393470156812e-06   -3.599827811285605e-05
2.7126569957161122e-05   -3.232393470156812e-06   -3.599827811285605e-05
5.630654315925159e-06   0.0   -7.260930740040474e-05
5.630654315925159e-06   0.0   -7.260930740040474e-05
5.630654315925159e-06   0.0   -7.260930740040474e-05
5.630654315925159e-06   0.0   -7.260930740040474e-05
4.950345281438052e-05   -4.3720192609628925e-06   -2.1111881262235503e-06
4.950345281438052e-05   -4.3720192609628925e-06   -2.1111881262235503e-06
4.950345281438052e-05   -4.3720192609628925e-06   -2.1111881262235503e-06
4.950345281438052e-05   -4.3720192609628925e-06   -2.1111881262235503e-06
4.9283606127483046e-05   0.0   -7.415816189459138e-05
4.9283606127483046e-05   0.0   -7.415816189459138e-05
4.9283606127483046e-05   0.0   -7.415816189459138e-05
4.9283606127483046e-05   0.0   -7.415816189459138e-05
6.325092892861577e-06   -2.753706266270611e-06   -9.084160771265749e-07
6.325092892861577e-06   -2.753706266270611e-06   -9.084160771265749e-07
6.325092892861577e-06   -2.753706266270611e-06   -9.084160771265749e-07
6.325092892861577e-06   -2.753706266270611e-06   -9.084160771265749e-07
2.74571302217041e-05   -1.2907120784888619e-06   -3.700627480453313e-05
2.74571302217041e-05   -1.2907120784888619e-06   -3.700627480453313e-05
2.74571302217041e-05   -1.2907120784888619e-06   -3.700627480453313e-05
2.74571302217041e-05   -1.2907120784888619e-06   -3.700627480453313e-05
6.325092892861572e-06   0.0   -7.250593813482895e-05
6.325092892861572e-06   0.0   -7.250593813482895e-05
6.325092892861572e-06   0.0   -7.250593813482895e-05
6.325092892861572e-06   0.0   -7.250593813482895e-05
4.9283606127483046e-05   -2.753706266270611e-06   -2.560639836888932e-06
4.9283606127483046e-05   -2.753706266270611e-06   -2.560639836888932e-06
4.9283606127483046e-05   -2.753706266270611e-06   -2.560639836888932e-06
4.9283606127483046e-05   -2.753706266270611e-06   -2.560639836888932e-06
5.0230557136315284e-05   0.0   -7.127910561239774e-05
5.0230557136315284e-05   0.0   -7.127910561239774e-05
5.0230557136315284e-05   0.0   -7.127910561239774e-05
5.0230557136315284e-05   0.0   -7.127910561239774e-05
7.261664879809489e-06   -5.78577757300952e-07   6.82861469492463e-07
7.261664879809489e-06   -5.78577757300952e-07   6.82861469492463e-07
7.261664879809489e-06   -5.78577757300952e-07   6.82861469492463e-07
7.261664879809489e-06   -5.78577757300952e-07   6.82861469492463e-07
2.827782501458841e-05   1.022360435359393e-06   -3.530463500406857e-05
2.827782501458841e-05   1.022360435359393e-06   -3.530463500406857e-05
2.827782501458841e-05   1.022360435359393e-06   -3.530463500406857e-05
2.827782501458841e-05   1.022360435359393e-06   -3.530463500406857e-05
4.942465396976468e-05   0.0   -7.483183007604367e-05
4.942465396976468e-05   0.0   -7.483183007604367e-05
4.942465396976468e-05   0.0   -7.483183007604367e-05
4.942465396976468e-05   0.0   -7.483183007604367e-05
0.000111535170177654   -1.4689184772362471e-05   1.987218607368832e-05
0.000111535170177654   -1.4689184772362471e-05   1.987218607368832e-05
0.000111535170177654   -1.4689184772362471e-05   1.987218607368832e-05
0.000111535170177654   -1.4689184772362471e-05   1.987218607368832e-05
0.00010473772147074327   0.0   -8.273429378856003e-05
0.00010473772147074327   0.0   -8.273429378856003e-05
0.00010473772147074327   0.0   -8.273429378856003e-05
0.00010473772147074327   0.0   -8.273429378856003e-05
4.950345281438052e-05   -1.2502958052629264e-05   1.682459547028876e-05
4.950345281438052e-05   -1.2502958052629264e-05   1.682459547028876e-05
4.950345281438052e-05   -1.2502958052629264e-05   1.682459547028876e-05
4.950345281438052e-05   -1.2502958052629264e-05   1.682459547028876e-05
7.708118772025398e-05   -6.585386427096978e-06   -3.268883901481966e-05
7.708118772025398e-05   -6.585386427096978e-06   -3.268883901481966e-05
7.708118772025398e-05   -6.585386427096978e-06   -3.268883901481966e-05
7.708118772025398e-05   -6.585386427096978e-06   -3.268883901481966e-05
4.950345281438048e-05   0.0   -7.523251895698242e-05
4.950345281438048e-05   0.0   -7.523251895698242e-05
4.950345281438048e-05   0.0   -7.523251895698242e-05
4.950345281438048e-05   0.0   -7.523251895698242e-05
0.0001047377214707429   -1.250295805262921e-05   9.322820638711177e-06
0.0001047377214707429   -1.250295805262921e-05   9.322820638711177e-06
0.0001047377214707429   -1.250295805262921e-05   9.322820638711177e-06
0.0001047377214707429   -1.250295805262921e-05   9.322820638711177e-06
0.00010159960908629765   0.0   -8.101411670467732e-05
0.00010159960908629765   0.0   -8.101411670467732e-05
0.00010159960908629765   0.0   -8.101411670467732e-05
0.00010159960908629765   0.0   -8.101411670467732e-05
4.9283606127483046e-05   -1.1426591350143233e-05   1.3035176370099596e-05
4.9283606127483046e-05   -1.1426591350143233e-05   1.3035176370099596e-05
4.9283606127483046e-05   -1.1426591350143233e-05   1.3035176370099596e-05
4.9283606127483046e-05   -1.1426591350143233e-05   1.3035176370099596e-05
7.555153095033904e-05   -4.817998123079025e-06   -3.470985427089889e-05
7.555153095033904e-05   -4.817998123079025e-06   -3.470985427089889e-05
7.555153095033904e-05   -4.817998123079025e-06   -3.470985427089889e-05
7.555153095033904e-05   -4.817998123079025e-06   -3.470985427089889e-05
4.9283606127483046e-05   0.0   -7.415816189459138e-05
4.9283606127483046e-05   0.0   -7.415816189459138e-05
4.9283606127483046e-05   0.0   -7.415816189459138e-05
4.9283606127483046e-05   0.0   -7.415816189459138e-05
0.0001015996090862973   -1.1426591350143205e-05   6.179221560013618e-06
0.0001015996090862973   -1.1426591350143205e-05   6.179221560013618e-06
0.0001015996090862973   -1.1426591350143205e-05   6.179221560013618e-06
0.0001015996090862973   -1.1426591350143205e-05   6.179221560013618e-06
9.693331556675545e-05   0.0   -7.661110353883403e-05
9.693331556675545e-05   0.0   -7.661110353883403e-05
9.693331556675545e-05   0.0   -7.661110353883403e-05
9.693331556675545e-05   0.0   -7.661110353883403e-05
5.0230557136315284e-05   -8.886663210727353e-06   6.558825105002809e-06
5.0230557136315284e-05   -8.886663210727353e-06   6.558825105002809e-06
5.0230557136315284e-05   -8.886663210727353e-06   6.558825105002809e-06
5.0230557136315284e-05   -8.886663210727353e-06   6.558825105002809e-06
7.310846084711934e-05   -2.044118036868985e-06   -3.567654151731893e-05
7.310846084711934e-05   -2.044118036868985e-06   -3.567654151731893e-05
7.310846084711934e-05   -2.044118036868985e-06   -3.567654151731893e-05
7.310846084711934e-05   -2.044118036868985e-06   -3.567654151731893e-05
-0.00010909722178394747   1.3932860892949676e-05   -7.152449729581454e-05
-0.00010909722178394747   1.3932860892949676e-05   -7.152449729581454e-05
-0.00010909722178394747   1.3932860892949676e-05   -7.152449729581454e-05
-0.00010909722178394747   1.3932860892949676e-05   -7.152449729581454e-05
-6.987013748204362e-05   1.2533449570725763e-05   -6.985670252642438e-06
-6.987013748204362e-05   1.2533449570725763e-05   -6.985670252642438e-06