<?xml version="1.0"?> 
<VTKFile type="UnstructuredGrid"> 
   <UnstructuredGrid> 
      <Piece NumberOfPoints="6000"  NumberOfCells="1500">  
          <Points>  
             <DataArray type="Float64" NumberOfComponents="3" format="ascii">   
-500.0   0.0   0.0
-450.0   0.0   0.0
-500.0   30.0   0.0
-500.0   0.0   16.666666666666668
-450.0   0.0   0.0
-450.0   30.0   0.0
-500.0   30.0   0.0
-450.0   30.0   16.666666666666668
-500.0   0.0   16.666666666666668
-500.0   30.0   16.666666666666668
-450.0   30.0   16.666666666666668
-500.0   30.0   0.0
-500.0   0.0   16.666666666666668
-450.0   30.0   16.666666666666668
-450.0   0.0   16.666666666666668
-450.0   0.0   0.0
-500.0   0.0   16.666666666666668
-450.0   30.0   16.666666666666668
-450.0   0.0   0.0
-500.0   30.0   0.0
-500.0   0.0   16.666666666666668
-450.0   0.0   16.666666666666668
-500.0   30.0   16.666666666666668
-500.0   0.0   33.333333333333336
-450.0   0.0   16.666666666666668
-450.0   30.0   16.666666666666668
-500.0   30.0   16.666666666666668
-450.0   30.0   33.333333333333336
-500.0   0.0   33.333333333333336
-500.0   30.0   33.333333333333336
-450.0   30.0   33.333333333333336
-500.0   30.0   16.666666666666668
-500.0   0.0   33.333333333333336
-450.0   30.0   33.333333333333336
-450.0   0.0   33.333333333333336
-450.0   0.0   16.666666666666668
-500.0   0.0   33.333333333333336
-450.0   30.0   33.333333333333336
-450.0   0.0   16.666666666666668
-500.0   30.0   16.666666666666668
-500.0   0.0   33.333333333333336
-450.0   0.0   33.333333333333336
-500.0   30.0   33.333333333333336
-500.0   0.0   50.0
-450.0   0.0   33.333333333333336
-450.0   30.0   33.333333333333336
-500.0   30.0   33.333333333333336
-450.0   30.0   50.0
-500.0   0.0   50.0
-500.0   30.0   50.0
-450.0   30.0   50.0
-500.0   30.0   33.333333333333336
-500.0   0.0   50.0
-450.0   30.0   50.0
-450.0   0.0   50.0
-450.0   0.0   33.333333333333336
-500.0   0.0   50.0
-450.0   30.0   50.0
-450.0   0.0   33.333333333333336
-500.0   30.0   33.333333333333336
-500.0   30.0   0.0
-450.0   30.0   0.0
-500.0   60.0   0.0
-500.0   30.0   16.666666666666668
-450.0   30.0   0.0
-450.0   60.0   0.0
-500.0   60.0   0.0
-450.0   60.0   16.666666666666668
-500.0   30.0   16.666666666666668
-500.0   60.0   16.666666666666668
-450.0   60.0   16.666666666666668
-500.0   60.0   0.0
-500.0   30.0   16.666666666666668
-450.0   60.0   16.666666666666668
-450.0   30.0   16.666666666666668
-450.0   30.0   0.0
-500.0   30.0   16.666666666666668
-450.0   60.0   16.666666666666668
-450.0   30.0   0.0
-500.0   60.0   0.0
-500.0   30.0   16.666666666666668
-450.0   30.0   16.666666666666668
-500.0   60.0   16.666666666666668
-500.0   30.0   33.333333333333336
-450.0   30.0   16.666666666666668
-450.0   60.0   16.666666666666668
-500.0   60.0   16.666666666666668
-450.0   60.0   33.333333333333336
-500.0   30.0   33.333333333333336
-500.0   60.0   33.333333333333336
-450.0   60.0   33.333333333333336
-500.0   60.0   16.666666666666668
-500.0   30.0   33.333333333333336
-450.0   60.0   33.333333333333336
-450.0   30.0   33.333333333333336
-450.0   30.0   16.666666666666668
-500.0   30.0   33.333333333333336
-450.0   60.0   33.333333333333336
-450.0   30.0   16.666666666666668
-500.0   60.0   16.666666666666668
-500.0   30.0   33.333333333333336
-450.0   30.0   33.333333333333336
-500.0   60.0   33.333333333333336
-500.0   30.0   50.0
-450.0   30.0   33.333333333333336
-450.0   60.0   33.333333333333336
-500.0   60.0   33.333333333333336
-450.0   60.0   50.0
-500.0   30.0   50.0
-500.0   60.0   50.0
-450.0   60.0   50.0
-500.0   60.0   33.333333333333336
-500.0   30.0   50.0
-450.0   60.0   50.0
-450.0   30.0   50.0
-450.0   30.0   33.333333333333336
-500.0   30.0   50.0
-450.0   60.0   50.0
-450.0   30.0   33.333333333333336
-500.0   60.0   33.333333333333336
-500.0   60.0   0.0
-450.0   60.0   0.0
-500.0   90.0   0.0
-500.0   60.0   16.666666666666668
-450.0   60.0   0.0
-450.0   90.0   0.0
-500.0   90.0   0.0
-450.0   90.0   16.666666666666668
-500.0   60.0   16.666666666666668
-500.0   90.0   16.666666666666668
-450.0   90.0   16.666666666666668
-500.0   90.0   0.0
-500.0   60.0   16.666666666666668
-450.0   90.0   16.666666666666668
-450.0   60.0   16.666666666666668
-450.0   60.0   0.0
-500.0   60.0   16.666666666666668
-450.0   90.0   16.666666666666668
-450.0   60.0   0.0
-500.0   90.0   0.0
-500.0   60.0   16.666666666666668
-450.0   60.0   16.666666666666668
-500.0   90.0   16.666666666666668
-500.0   60.0   33.333333333333336
-450.0   60.0   16.666666666666668
-450.0   90.0   16.666666666666668
-500.0   90.0   16.666666666666668
-450.0   90.0   33.333333333333336
-500.0   60.0   33.333333333333336
-500.0   90.0   33.333333333333336
-450.0   90.0   33.333333333333336
-500.0   90.0   16.666666666666668
-500.0   60.0   33.333333333333336
-450.0   90.0   33.333333333333336
-450.0   60.0   33.333333333333336
-450.0   60.0   16.666666666666668
-500.0   60.0   33.333333333333336
-450.0   90.0   33.333333333333336
-450.0   60.0   16.666666666666668
-500.0   90.0   16.666666666666668
-500.0   60.0   33.333333333333336
-450.0   60.0   33.333333333333336
-500.0   90.0   33.333333333333336
-500.0   60.0   50.0
-450.0   60.0   33.333333333333336
-450.0   90.0   33.333333333333336
-500.0   90.0   33.333333333333336
-450.0   90.0   50.0
-500.0   60.0   50.0
-500.0   90.0   50.0
-450.0   90.0   50.0
-500.0   90.0   33.333333333333336
-500.0   60.0   50.0
-450.0   90.0   50.0
-450.0   60.0   50.0
-450.0   60.0   33.333333333333336
-500.0   60.0   50.0
-450.0   90.0   50.0
-450.0   60.0   33.333333333333336
-500.0   90.0   33.333333333333336
-500.0   90.0   0.0
-450.0   90.0   0.0
-500.0   120.0   0.0
-500.0   90.0   16.666666666666668
-450.0   90.0   0.0
-450.0   120.0   0.0
-500.0   120.0   0.0
-450.0   120.0   16.666666666666668
-500.0   90.0   16.666666666666668
-500.0   120.0   16.666666666666668
-450.0   120.0   16.666666666666668
-500.0   120.0   0.0
-500.0   90.0   16.666666666666668
-450.0   120.0   16.666666666666668
-450.0   90.0   16.666666666666668
-450.0   90.0   0.0
-500.0   90.0   16.666666666666668
-450.0   120.0   16.666666666666668
-450.0   90.0   0.0
-500.0   120.0   0.0
-500.0   90.0   16.666666666666668
-450.0   90.0   16.666666666666668
-500.0   120.0   16.666666666666668
-500.0   90.0   33.333333333333336
-450.0   90.0   16.666666666666668
-450.0   120.0   16.666666666666668
-500.0   120.0   16.666666666666668
-450.0   120.0   33.333333333333336
-500.0   90.0   33.333333333333336
-500.0   120.0   33.333333333333336
-450.0   120.0   33.333333333333336
-500.0   120.0   16.666666666666668
-500.0   90.0   33.333333333333336
-450.0   120.0   33.333333333333336
-450.0   90.0   33.333333333333336
-450.0   90.0   16.666666666666668
-500.0   90.0   33.333333333333336
-450.0   120.0   33.333333333333336
-450.0   90.0   16.666666666666668
-500.0   120.0   16.666666666666668
-500.0   90.0   33.333333333333336
-450.0   90.0   33.333333333333336
-500.0   120.0   33.333333333333336
-500.0   90.0   50.0
-450.0   90.0   33.333333333333336
-450.0   120.0   33.333333333333336
-500.0   120.0   33.333333333333336
-450.0   120.0   50.0
-500.0   90.0   50.0
-500.0   120.0   50.0
-450.0   120.0   50.0
-500.0   120.0   33.333333333333336
-500.0   90.0   50.0
-450.0   120.0   50.0
-450.0   90.0   50.0
-450.0   90.0   33.333333333333336
-500.0   90.0   50.0
-450.0   120.0   50.0
-450.0   90.0   33.333333333333336
-500.0   120.0   33.333333333333336
-500.0   120.0   0.0
-450.0   120.0   0.0
-500.0   150.0   0.0
-500.0   120.0   16.666666666666668
-450.0   120.0   0.0
-450.0   150.0   0.0
-500.0   150.0   0.0
-450.0   150.0   16.666666666666668
-500.0   120.0   16.666666666666668
-500.0   150.0   16.666666666666668
-450.0   150.0   16.666666666666668
-500.0   150.0   0.0
-500.0   120.0   16.666666666666668
-450.0   150.0   16.666666666666668
-450.0   120.0   16.666666666666668
-450.0   120.0   0.0
-500.0   120.0   16.666666666666668
-450.0   150.0   16.666666666666668
-450.0   120.0   0.0
-500.0   150.0   0.0
-500.0   120.0   16.666666666666668
-450.0   120.0   16.666666666666668
-500.0   150.0   16.666666666666668
-500.0   120.0   33.333333333333336
-450.0   120.0   16.666666666666668
-450.0   150.0   16.666666666666668
-500.0   150.0   16.666666666666668
-450.0   150.0   33.333333333333336
-500.0   120.0   33.333333333333336
-500.0   150.0   33.333333333333336
-450.0   150.0   33.333333333333336
-500.0   150.0   16.666666666666668
-500.0   120.0   33.333333333333336
-450.0   150.0   33.333333333333336
-450.0   120.0   33.333333333333336
-450.0   120.0   16.666666666666668
-500.0   120.0   33.333333333333336
-450.0   150.0   33.333333333333336
-450.0   120.0   16.666666666666668
-500.0   150.0   16.666666666666668
-500.0   120.0   33.333333333333336
-450.0   120.0   33.333333333333336
-500.0   150.0   33.333333333333336
-500.0   120.0   50.0
-450.0   120.0   33.333333333333336
-450.0   150.0   33.333333333333336
-500.0   150.0   33.333333333333336
-450.0   150.0   50.0
-500.0   120.0   50.0
-500.0   150.0   50.0
-450.0   150.0   50.0
-500.0   150.0   33.333333333333336
-500.0   120.0   50.0
-450.0   150.0   50.0
-450.0   120.0   50.0
-450.0   120.0   33.333333333333336
-500.0   120.0   50.0
-450.0   150.0   50.0
-450.0   120.0   33.333333333333336
-500.0   150.0   33.333333333333336
-450.0   0.0   0.0
-400.0   0.0   0.0
-450.0   30.0   0.0
-450.0   0.0   16.666666666666668
-400.0   0.0   0.0
-400.0   30.0   0.0
-450.0   30.0   0.0
-400.0   30.0   16.666666666666668
-450.0   0.0   16.666666666666668
-450.0   30.0   16.666666666666668
-400.0   30.0   16.666666666666668
-450.0   30.0   0.0
-450.0   0.0   16.666666666666668
-400.0   30.0   16.666666666666668
-400.0   0.0   16.666666666666668
-400.0   0.0   0.0
-450.0   0.0   16.666666666666668
-400.0   30.0   16.666666666666668
-400.0   0.0   0.0
-450.0   30.0   0.0
-450.0   0.0   16.666666666666668
-400.0   0.0   16.666666666666668
-450.0   30.0   16.666666666666668
[...]
          <PointData>  
             <DataArray type="Float64" NumberOfComponents="3" Name="Strains" format="ascii">   
-0.00010063189759967542   0.0   -6.602799002685391e-05
-0.00010063189759967542   0.0   -6.602799002685391e-05
-0.00010063189759967542   0.0   -6.602799002685391e-05
-0.00010063189759967542   0.0   -6.602799002685391e-05
-6.403569818432578e-05   1.1150327294092341e-05   1.655872041850755e-06
-6.403569818432578e-05   1.1150327294092341e-05   1.655872041850755e-06
-6.403569818432578e-05   1.1150327294092341e-05   1.655872041850755e-06
-6.403569818432578e-05   1.1150327294092341e-05   1.655872041850755e-06
-6.277061967548796e-05   0.0   -6.23151704824727e-05
-6.277061967548796e-05   0.0   -6.23151704824727e-05
-6.277061967548796e-05   0.0   -6.23151704824727e-05
-6.277061967548796e-05   0.0   -6.23151704824727e-05
-0.00010531770089546226   1.3379890609270572e-05   5.686971852557332e-07
-0.00010531770089546226   1.3379890609270572e-05   5.686971852557332e-07
-0.00010531770089546226   1.3379890609270572e-05   5.686971852557332e-07
-0.00010531770089546226   1.3379890609270572e-05   5.686971852557332e-07
-8.170125863758155e-05   3.0940162869843357e-06   -3.2620515317840336e-05
-8.170125863758155e-05   3.0940162869843357e-06   -3.2620515317840336e-05
-8.170125863758155e-05   3.0940162869843357e-06   -3.2620515317840336e-05
-8.170125863758155e-05   3.0940162869843357e-06   -3.2620515317840336e-05
-0.00010531770089546245   0.0   -7.034310484803507e-05
-0.00010531770089546245   0.0   -7.034310484803507e-05
-0.00010531770089546245   0.0   -7.034310484803507e-05
-0.00010531770089546245   0.0   -7.034310484803507e-05
-6.277061967548796e-05   1.3379890609270599e-05   8.596631550818082e-06
-6.277061967548796e-05   1.3379890609270599e-05   8.596631550818082e-06
-6.277061967548796e-05   1.3379890609270599e-05   8.596631550818082e-06
-6.277061967548796e-05   1.3379890609270599e-05   8.596631550818082e-06
-6.294909331254578e-05   0.0   -6.384081701997914e-05
-6.294909331254578e-05   0.0   -6.384081701997914e-05
-6.294909331254578e-05   0.0   -6.384081701997914e-05
-6.294909331254578e-05   0.0   -6.384081701997914e-05
-0.00010860916001977444   1.4334244199163808e-05   3.6587476392373013e-06
-0.00010860916001977444   1.4334244199163808e-05   3.6587476392373013e-06
-0.00010860916001977444   1.4334244199163808e-05   3.6587476392373013e-06
-0.00010860916001977444   1.4334244199163808e-05   3.6587476392373013e-06
-8.413339710400397e-05   5.418573190046609e-06   -3.1784787948243144e-05
-8.413339710400397e-05   5.418573190046609e-06   -3.1784787948243144e-05
-8.413339710400397e-05   5.418573190046609e-06   -3.1784787948243144e-05
-8.413339710400397e-05   5.418573190046609e-06   -3.1784787948243144e-05
-0.00010860916001977463   0.0   -7.244136353947745e-05
-0.00010860916001977463   0.0   -7.244136353947745e-05
-0.00010860916001977463   0.0   -7.244136353947745e-05
-0.00010860916001977463   0.0   -7.244136353947745e-05
-6.294909331254578e-05   1.4334244199163835e-05   1.2259294158735597e-05
-6.294909331254578e-05   1.4334244199163835e-05   1.2259294158735597e-05
-6.294909331254578e-05   1.4334244199163835e-05   1.2259294158735597e-05
-6.294909331254578e-05   1.4334244199163835e-05   1.2259294158735597e-05
-6.291763973707571e-05   0.0   -6.423261878088598e-05
-6.291763973707571e-05   0.0   -6.423261878088598e-05
-6.291763973707571e-05   0.0   -6.423261878088598e-05
-6.291763973707571e-05   0.0   -6.423261878088598e-05
-0.00011569843139316285   1.6328730152992087e-05   1.3938129220797624e-05
-0.00011569843139316285   1.6328730152992087e-05   1.3938129220797624e-05
-0.00011569843139316285   1.6328730152992087e-05   1.3938129220797624e-05
-0.00011569843139316285   1.6328730152992087e-05   1.3938129220797624e-05
-8.576339987842502e-05   6.840620632159552e-06   -3.0260724257932536e-05
-8.576339987842502e-05   6.840620632159552e-06   -3.0260724257932536e-05
-8.576339987842502e-05   6.840620632159552e-06   -3.0260724257932536e-05
-8.576339987842502e-05   6.840620632159552e-06   -3.0260724257932536e-05
-6.403569818432588e-05   0.0   -5.93377936503985e-05
-6.403569818432588e-05   0.0   -5.93377936503985e-05
-6.403569818432588e-05   0.0   -5.93377936503985e-05
-6.403569818432588e-05   0.0   -5.93377936503985e-05
-2.916052712699236e-05   4.0899343375233875e-06   1.2414520476713737e-06
-2.916052712699236e-05   4.0899343375233875e-06   1.2414520476713737e-06
-2.916052712699236e-05   4.0899343375233875e-06   1.2414520476713737e-06
-2.916052712699236e-05   4.0899343375233875e-06   1.2414520476713737e-06
-2.80475950727405e-05   0.0   -5.882193404067065e-05
-2.80475950727405e-05   0.0   -5.882193404067065e-05
-2.80475950727405e-05   0.0   -5.882193404067065e-05
-2.80475950727405e-05   0.0   -5.882193404067065e-05
-6.277061967548796e-05   5.822060736336763e-06   -4.443462811226935e-06
-6.277061967548796e-05   5.822060736336763e-06   -4.443462811226935e-06
-6.277061967548796e-05   5.822060736336763e-06   -4.443462811226935e-06
-6.277061967548796e-05   5.822060736336763e-06   -4.443462811226935e-06
-4.604164662853311e-05   4.298830081065399e-07   -2.9089777919213342e-05
-4.604164662853311e-05   4.298830081065399e-07   -2.9089777919213342e-05
-4.604164662853311e-05   4.298830081065399e-07   -2.9089777919213342e-05
-4.604164662853311e-05   4.298830081065399e-07   -2.9089777919213342e-05
-6.277061967548791e-05   0.0   -6.231517048247265e-05
-6.277061967548791e-05   0.0   -6.231517048247265e-05
-6.277061967548791e-05   0.0   -6.231517048247265e-05
-6.277061967548791e-05   0.0   -6.231517048247265e-05
-2.80475950727405e-05   5.822060736336763e-06   -9.502263694248896e-07
-2.80475950727405e-05   5.822060736336763e-06   -9.502263694248896e-07
-2.80475950727405e-05   5.822060736336763e-06   -9.502263694248896e-07
-2.80475950727405e-05   5.822060736336763e-06   -9.502263694248896e-07
-2.7423130635195093e-05   0.0   -5.956060774031566e-05
-2.7423130635195093e-05   0.0   -5.956060774031566e-05
-2.7423130635195093e-05   0.0   -5.956060774031566e-05
-2.7423130635195093e-05   0.0   -5.956060774031566e-05
-6.294909331254578e-05   7.133682132772469e-06   -4.6308792243946665e-06
-6.294909331254578e-05   7.133682132772469e-06   -4.6308792243946665e-06
-6.294909331254578e-05   7.133682132772469e-06   -4.6308792243946665e-06
-6.294909331254578e-05   7.133682132772469e-06   -4.6308792243946665e-06
-4.509687515534144e-05   2.2954689517975374e-06   -3.148164824448336e-05
-4.509687515534144e-05   2.2954689517975374e-06   -3.148164824448336e-05
-4.509687515534144e-05   2.2954689517975374e-06   -3.148164824448336e-05
-4.509687515534144e-05   2.2954689517975374e-06   -3.148164824448336e-05
-6.294909331254578e-05   0.0   -6.384081701997914e-05
-6.294909331254578e-05   0.0   -6.384081701997914e-05
-6.294909331254578e-05   0.0   -6.384081701997914e-05
-6.294909331254578e-05   0.0   -6.384081701997914e-05
-2.7423130635195093e-05   7.133682132772469e-06   -3.506699447311827e-07
-2.7423130635195093e-05   7.133682132772469e-06   -3.506699447311827e-07
-2.7423130635195093e-05   7.133682132772469e-06   -3.506699447311827e-07
-2.7423130635195093e-05   7.133682132772469e-06   -3.506699447311827e-07
-2.685474628138861e-05   0.0   -5.925230201395814e-05
-2.685474628138861e-05   0.0   -5.925230201395814e-05
-2.685474628138861e-05   0.0   -5.925230201395814e-05
-2.685474628138861e-05   0.0   -5.925230201395814e-05
-6.291763973707555e-05   8.300527944879625e-06   -4.127796354740773e-06
-6.291763973707555e-05   8.300527944879625e-06   -4.127796354740773e-06
-6.291763973707555e-05   8.300527944879625e-06   -4.127796354740773e-06
-6.291763973707555e-05   8.300527944879625e-06   -4.127796354740773e-06
-4.490191979696718e-05   3.82376250501746e-06   -3.1467936991004326e-05
-4.490191979696718e-05   3.82376250501746e-06   -3.1467936991004326e-05
-4.490191979696718e-05   3.82376250501746e-06   -3.1467936991004326e-05
-4.490191979696718e-05   3.82376250501746e-06   -3.1467936991004326e-05
-2.916052712699241e-05   0.0   -5.688383304788446e-05
-2.916052712699241e-05   0.0   -5.688383304788446e-05
-2.916052712699241e-05   0.0   -5.688383304788446e-05
-2.916052712699241e-05   0.0   -5.688383304788446e-05
3.791196713612659e-06   -5.236549873280415e-07   -2.2784863059394545e-06
3.791196713612659e-06   -5.236549873280415e-07   -2.2784863059394545e-06
3.791196713612659e-06   -5.236549873280415e-07   -2.2784863059394545e-06
3.791196713612659e-06   -5.236549873280415e-07   -2.2784863059394545e-06
4.50090753890291e-06   0.0   -5.8202718809772585e-05
4.50090753890291e-06   0.0   -5.8202718809772585e-05
4.50090753890291e-06   0.0   -5.8202718809772585e-05
4.50090753890291e-06   0.0   -5.8202718809772585e-05
-2.80475950727405e-05   1.0320253848297766e-06   -4.574429687931619e-06
-2.80475950727405e-05   1.0320253848297766e-06   -4.574429687931619e-06
-2.80475950727405e-05   1.0320253848297766e-06   -4.574429687931619e-06
-2.80475950727405e-05   1.0320253848297766e-06   -4.574429687931619e-06
-1.232980979404472e-05   -1.0990714682402656e-06   -2.9492080373915773e-05
-1.232980979404472e-05   -1.0990714682402656e-06   -2.9492080373915773e-05
-1.232980979404472e-05   -1.0990714682402656e-06   -2.9492080373915773e-05
-1.232980979404472e-05   -1.0990714682402656e-06   -2.9492080373915773e-05
-2.80475950727405e-05   0.0   -5.882193404067065e-05
-2.80475950727405e-05   0.0   -5.882193404067065e-05
-2.80475950727405e-05   0.0   -5.882193404067065e-05
-2.80475950727405e-05   0.0   -5.882193404067065e-05
4.500907538902917e-06   1.0320253848297766e-06   -3.955214457033743e-06
4.500907538902917e-06   1.0320253848297766e-06   -3.955214457033743e-06
4.500907538902917e-06   1.0320253848297766e-06   -3.955214457033743e-06
4.500907538902917e-06   1.0320253848297766e-06   -3.955214457033743e-06
5.060864738226141e-06   0.0   -5.811956234458656e-05
5.060864738226141e-06   0.0   -5.811956234458656e-05
5.060864738226141e-06   0.0   -5.811956234458656e-05
5.060864738226141e-06   0.0   -5.811956234458656e-05
-2.7423130635195046e-05   2.4017423262149895e-06   -5.42061545128025e-06
-2.7423130635195046e-05   2.4017423262149895e-06   -5.42061545128025e-06
-2.7423130635195046e-05   2.4017423262149895e-06   -5.42061545128025e-06
-2.7423130635195046e-05   2.4017423262149895e-06   -5.42061545128025e-06
-1.1493365167257176e-05   5.853097467366575e-07   -3.08803650168231e-05
-1.1493365167257176e-05   5.853097467366575e-07   -3.08803650168231e-05
-1.1493365167257176e-05   5.853097467366575e-07   -3.08803650168231e-05
-1.1493365167257176e-05   5.853097467366575e-07   -3.08803650168231e-05
-2.7423130635195093e-05   0.0   -5.956060774031566e-05
-2.7423130635195093e-05   0.0   -5.956060774031566e-05
-2.7423130635195093e-05   0.0   -5.956060774031566e-05
-2.7423130635195093e-05   0.0   -5.956060774031566e-05
5.06086473822615e-06   2.4017423262149895e-06   -3.979570055551271e-06
5.06086473822615e-06   2.4017423262149895e-06   -3.979570055551271e-06
5.06086473822615e-06   2.4017423262149895e-06   -3.979570055551271e-06
5.06086473822615e-06   2.4017423262149895e-06   -3.979570055551271e-06
5.814770956451886e-06   0.0   -5.6859316130026005e-05
5.814770956451886e-06   0.0   -5.6859316130026005e-05
5.814770956451886e-06   0.0   -5.6859316130026005e-05
5.814770956451886e-06   0.0   -5.6859316130026005e-05
-2.6854746281388585e-05   3.988309806553461e-06   -4.803106617557307e-06
-2.6854746281388585e-05   3.988309806553461e-06   -4.803106617557307e-06
-2.6854746281388585e-05   3.988309806553461e-06   -4.803106617557307e-06
-2.6854746281388585e-05   3.988309806553461e-06   -4.803106617557307e-06
-1.080417983937158e-05   2.2510763419079566e-06   -3.051171060879832e-05
-1.080417983937158e-05   2.2510763419079566e-06   -3.051171060879832e-05
-1.080417983937158e-05   2.2510763419079566e-06   -3.051171060879832e-05
-1.080417983937158e-05   2.2510763419079566e-06   -3.051171060879832e-05
3.7911967136126658e-06   0.0   -5.71980260402813e-05
3.7911967136126658e-06   0.0   -5.71980260402813e-05
3.7911967136126658e-06   0.0   -5.71980260402813e-05
3.7911967136126658e-06   0.0   -5.71980260402813e-05
3.9558561258951746e-05   -4.639807544519936e-06   -3.6963632476140625e-07
3.9558561258951746e-05   -4.639807544519936e-06   -3.6963632476140625e-07
3.9558561258951746e-05   -4.639807544519936e-06   -3.6963632476140625e-07
3.9558561258951746e-05   -4.639807544519936e-06   -3.6963632476140625e-07
3.962647778344956e-05   0.0   -6.030164446848698e-05
3.962647778344956e-05   0.0   -6.030164446848698e-05
3.962647778344956e-05   0.0   -6.030164446848698e-05
3.962647778344956e-05   0.0   -6.030164446848698e-05
4.500907538902925e-06   -3.498209431190339e-06   3.398982644716021e-07
4.500907538902925e-06   -3.498209431190339e-06   3.398982644716021e-07
4.500907538902925e-06   -3.498209431190339e-06   3.398982644716021e-07
4.500907538902925e-06   -3.498209431190339e-06   3.398982644716021e-07
2.1708837248531114e-05   -2.5863486901714144e-06   -2.8887101029520036e-05
2.1708837248531114e-05   -2.5863486901714144e-06   -2.8887101029520036e-05
2.1708837248531114e-05   -2.5863486901714144e-06   -2.8887101029520036e-05
2.1708837248531114e-05   -2.5863486901714144e-06   -2.8887101029520036e-05
4.500907538902925e-06   0.0   -5.820271880977279e-05
4.500907538902925e-06   0.0   -5.820271880977279e-05
4.500907538902925e-06   0.0   -5.820271880977279e-05
4.500907538902925e-06   0.0   -5.820271880977279e-05
3.962647778344956e-05   -3.498209431190339e-06   -1.7590273942425899e-06
3.962647778344956e-05   -3.498209431190339e-06   -1.7590273942425899e-06
3.962647778344956e-05   -3.498209431190339e-06   -1.7590273942425899e-06
3.962647778344956e-05   -3.498209431190339e-06   -1.7590273942425899e-06
3.945467328914547e-05   0.0   -5.944054237852212e-05
3.945467328914547e-05   0.0   -5.944054237852212e-05
3.945467328914547e-05   0.0   -5.944054237852212e-05
3.945467328914547e-05   0.0   -5.944054237852212e-05
5.06086473822615e-06   -2.20163338989243e-06   -7.965480930544716e-07
5.06086473822615e-06   -2.20163338989243e-06   -7.965480930544716e-07
5.06086473822615e-06   -2.20163338989243e-06   -7.965480930544716e-07
5.06086473822615e-06   -2.20163338989243e-06   -7.965480930544716e-07
2.1977790414024196e-05   -1.0315196406244457e-06   -2.9693492468945315e-05
2.1977790414024196e-05   -1.0315196406244457e-06   -2.9693492468945315e-05
2.1977790414024196e-05   -1.0315196406244457e-06   -2.9693492468945315e-05
2.1977790414024196e-05   -1.0315196406244457e-06   -2.9693492468945315e-05
5.060864738226146e-06   0.0   -5.811956234458662e-05
5.060864738226146e-06   0.0   -5.811956234458662e-05
5.060864738226146e-06   0.0   -5.811956234458662e-05
5.060864738226146e-06   0.0   -5.811956234458662e-05
3.945467328914547e-05   -2.20163338989243e-06   -2.1175281269899285e-06
3.945467328914547e-05   -2.20163338989243e-06   -2.1175281269899285e-06
3.945467328914547e-05   -2.20163338989243e-06   -2.1175281269899285e-06
3.945467328914547e-05   -2.20163338989243e-06   -2.1175281269899285e-06
4.021678334215402e-05   0.0   -5.713483452679697e-05
4.021678334215402e-05   0.0   -5.713483452679697e-05
4.021678334215402e-05   0.0   -5.713483452679697e-05
4.021678334215402e-05   0.0   -5.713483452679697e-05
5.814770956451896e-06   -4.591973279514407e-07   4.773711794774102e-07
5.814770956451896e-06   -4.591973279514407e-07   4.773711794774102e-07
5.814770956451896e-06   -4.591973279514407e-07   4.773711794774102e-07
5.814770956451896e-06   -4.591973279514407e-07   4.773711794774102e-07
2.2638824040190063e-05   8.206065148247415e-07   -2.8330599599085224e-05
2.2638824040190063e-05   8.206065148247415e-07   -2.8330599599085224e-05
2.2638824040190063e-05   8.206065148247415e-07   -2.8330599599085224e-05
2.2638824040190063e-05   8.206065148247415e-07   -2.8330599599085224e-05
3.9558561258951746e-05   0.0   -5.998191056699325e-05
3.9558561258951746e-05   0.0   -5.998191056699325e-05
3.9558561258951746e-05   0.0   -5.998191056699325e-05
3.9558561258951746e-05   0.0   -5.998191056699325e-05
8.929627765712573e-05   -1.1760259147572294e-05   1.5858127941420502e-05
8.929627765712573e-05   -1.1760259147572294e-05   1.5858127941420502e-05
8.929627765712573e-05   -1.1760259147572294e-05   1.5858127941420502e-05
8.929627765712573e-05   -1.1760259147572294e-05   1.5858127941420502e-05
8.386046499694918e-05   0.0   -6.630607853841518e-05
8.386046499694918e-05   0.0   -6.630607853841518e-05
8.386046499694918e-05   0.0   -6.630607853841518e-05
8.386046499694918e-05   0.0   -6.630607853841518e-05
3.962647778344956e-05   -1.0007390116546978e-05   1.3421667554012386e-05
3.962647778344956e-05   -1.0007390116546978e-05   1.3421667554012386e-05
3.962647778344956e-05   -1.0007390116546978e-05   1.3421667554012386e-05
3.962647778344956e-05   -1.0007390116546978e-05   1.3421667554012386e-05
6.170951312795046e-05   -5.270139976184935e-06   -2.622574143770633e-05
6.170951312795046e-05   -5.270139976184935e-06   -2.622574143770633e-05
6.170951312795046e-05   -5.270139976184935e-06   -2.622574143770633e-05
6.170951312795046e-05   -5.270139976184935e-06   -2.622574143770633e-05
3.9626477783449526e-05   0.0   -6.0301644468486936e-05
3.9626477783449526e-05   0.0   -6.0301644468486936e-05
3.9626477783449526e-05   0.0   -6.0301644468486936e-05
3.9626477783449526e-05   0.0   -6.0301644468486936e-05
8.386046499694889e-05   -1.000739011654695e-05   7.417233484084131e-06
8.386046499694889e-05   -1.000739011654695e-05   7.417233484084131e-06
8.386046499694889e-05   -1.000739011654695e-05   7.417233484084131e-06
8.386046499694889e-05   -1.000739011654695e-05   7.417233484084131e-06
8.13528503823695e-05   0.0   -6.492751596792883e-05
8.13528503823695e-05   0.0   -6.492751596792883e-05
8.13528503823695e-05   0.0   -6.492751596792883e-05
8.13528503823695e-05   0.0   -6.492751596792883e-05
3.945467328914547e-05   -9.14495598234452e-06   1.0389752776851255e-05
3.945467328914547e-05   -9.14495598234452e-06   1.0389752776851255e-05
3.945467328914547e-05   -9.14495598234452e-06   1.0389752776851255e-05
3.945467328914547e-05   -9.14495598234452e-06   1.0389752776851255e-05
6.0489664082909495e-05   -3.854892916201543e-06   -2.7842603052441245e-05
6.0489664082909495e-05   -3.854892916201543e-06   -2.7842603052441245e-05
6.0489664082909495e-05   -3.854892916201543e-06   -2.7842603052441245e-05
6.0489664082909495e-05   -3.854892916201543e-06   -2.7842603052441245e-05
3.945467328914547e-05   0.0   -5.944054237852212e-05
3.945467328914547e-05   0.0   -5.944054237852212e-05
3.945467328914547e-05   0.0   -5.944054237852212e-05
3.945467328914547e-05   0.0   -5.944054237852212e-05
8.135285038236922e-05   -9.144955982344494e-06   4.9027791874445075e-06
8.135285038236922e-05   -9.144955982344494e-06   4.9027791874445075e-06
8.135285038236922e-05   -9.144955982344494e-06   4.9027791874445075e-06
8.135285038236922e-05   -9.144955982344494e-06   4.9027791874445075e-06
7.762117838159149e-05   0.0   -6.140034601264898e-05
7.762117838159149e-05   0.0   -6.140034601264898e-05
7.762117838159149e-05   0.0   -6.140034601264898e-05
7.762117838159149e-05   0.0   -6.140034601264898e-05
4.021678334215402e-05   -7.109185809753532e-06   5.205823872265699e-06
4.021678334215402e-05   -7.109185809753532e-06   5.205823872265699e-06
4.021678334215402e-05   -7.109185809753532e-06   5.205823872265699e-06
4.021678334215402e-05   -7.109185809753532e-06   5.205823872265699e-06
5.853792583536855e-05   -1.6331696951058094e-06   -2.8615023285213787e-05
5.853792583536855e-05   -1.6331696951058094e-06   -2.8615023285213787e-05
5.853792583536855e-05   -1.6331696951058094e-06   -2.8615023285213787e-05
5.853792583536855e-05   -1.6331696951058094e-06   -2.8615023285213787e-05
-8.732498610903706e-05   1.1150327294092327e-05   -5.72852307540825e-05
-8.732498610903706e-05   1.1150327294092327e-05   -5.72852307540825e-05
-8.732498610903706e-05   1.1150327294092327e-05   -5.72852307540825e-05
-8.732498610903706e-05   1.1150327294092327e-05   -5.72852307540825e-05
-5.592981583851869e-05   1.0028055668602953e-05   -5.633309945178848e-06