<?xml version="1.0"?> 
<VTKFile type="UnstructuredGrid"> 
   <UnstructuredGrid> 
      <Piece NumberOfPoints="6000"  NumberOfCells="1500">  
          <Points>  
             <DataArray type="Float64" NumberOfComponents="3" format="ascii">   
-500.0   0.0   0.0
-450.0   0.0   0.0
-500.0   30.0   0.0
-500.0   0.0   16.666666666666668
-450.0   0.0   0.0
-450.0   30.0   0.0
-500.0   30.0   0.0
-450.0   30.0   16.666666666666668
-500.0   0.0   16.666666666666668
-500.0   30.0   16.666666666666668
-450.0   30.0   16.666666666666668
-500.0   30.0   0.0
-500.0   0.0   16.666666666666668
-450.0   30.0   16.666666666666668
-450.0   0.0   16.666666666666668
-450.0   0.0   0.0
-500.0   0.0   16.666666666666668
-450.0   30.0   16.666666666666668
-450.0   0.0   0.0
-500.0   30.0   0.0
-500.0   0.0   16.666666666666668
-450.0   0.0   16.666666666666668
-500.0   30.0   16.666666666666668
-500.0   0.0   33.333333333333336
-450.0   0.0   16.666666666666668
-450.0   30.0   16.666666666666668
-500.0   30.0   16.666666666666668
-450.0   30.0   33.333333333333336
-500.0   0.0   33.333333333333336
-500.0   30.0   33.333333333333336
-450.0   30.0   33.333333333333336
-500.0   30.0   16.666666666666668
-500.0   0.0   33.333333333333336
-450.0   30.0   33.333333333333336
-450.0   0.0   33.333333333333336
-450.0   0.0   16.666666666666668
-500.0   0.0   33.333333333333336
-450.0   30.0   33.333333333333336
-450.0   0.0   16.666666666666668
-500.0   30.0   16.666666666666668
-500.0   0.0   33.333333333333336
-450.0   0.0   33.333333333333336
-500.0   30.0   33.333333333333336
-500.0   0.0   50.0
-450.0   0.0   33.333333333333336
-450.0   30.0   33.333333333333336
-500.0   30.0   33.333333333333336
-450.0   30.0   50.0
-500.0   0.0   50.0
-500.0   30.0   50.0
-450.0   30.0   50.0
-500.0   30.0   33.333333333333336
-500.0   0.0   50.0
-450.0   30.0   50.0
-450.0   0.0   50.0
-450.0   0.0   33.333333333333336
-500.0   0.0   50.0
-450.0   30.0   50.0
-450.0   0.0   33.333333333333336
-500.0   30.0   33.333333333333336
-500.0   30.0   0.0
-450.0   30.0   0.0
-500.0   60.0   0.0
-500.0   30.0   16.666666666666668
-450.0   30.0   0.0
-450.0   60.0   0.0
-500.0   60.0   0.0
-450.0   60.0   16.666666666666668
-500.0   30.0   16.666666666666668
-500.0   60.0   16.666666666666668
-450.0   60.0   16.666666666666668
-500.0   60.0   0.0
-500.0   30.0   16.666666666666668
-450.0   60.0   16.666666666666668
-450.0   30.0   16.666666666666668
-450.0   30.0   0.0
-500.0   30.0   16.666666666666668
-450.0   60.0   16.666666666666668
-450.0   30.0   0.0
-500.0   60.0   0.0
-500.0   30.0   16.666666666666668
-450.0   30.0   16.666666666666668
-500.0   60.0   16.666666666666668
-500.0   30.0   33.333333333333336
-450.0   30.0   16.666666666666668
-450.0   60.0   16.666666666666668
-500.0   60.0   16.666666666666668
-450.0   60.0   33.333333333333336
-500.0   30.0   33.333333333333336
-500.0   60.0   33.333333333333336
-450.0   60.0   33.333333333333336
-500.0   60.0   16.666666666666668
-500.0   30.0   33.333333333333336
-450.0   60.0   33.333333333333336
-450.0   30.0   33.333333333333336
-450.0   30.0   16.666666666666668
-500.0   30.0   33.333333333333336
-450.0   60.0   33.333333333333336
-450.0   30.0   16.666666666666668
-500.0   60.0   16.666666666666668
-500.0   30.0   33.333333333333336
-450.0   30.0   33.333333333333336
-500.0   60.0   33.333333333333336
-500.0   30.0   50.0
-450.0   30.0   33.333333333333336
-450.0   60.0   33.333333333333336
-500.0   60.0   33.333333333333336
-450.0   60.0   50.0
-500.0   30.0   50.0
-500.0   60.0   50.0
-450.0   60.0   50.0
-500.0   60.0   33.333333333333336
-500.0   30.0   50.0
-450.0   60.0   50.0
-450.0   30.0   50.0
-450.0   30.0   33.333333333333336
-500.0   30.0   50.0
-450.0   60.0   50.0
-450.0   30.0   33.333333333333336
-500.0   60.0   33.333333333333336
-500.0   60.0   0.0
-450.0   60.0   0.0
-500.0   90.0   0.0
-500.0   60.0   16.666666666666668
-450.0   60.0   0.0
-450.0   90.0   0.0
-500.0   90.0   0.0
-450.0   90.0   16.666666666666668
-500.0   60.0   16.666666666666668
-500.0   90.0   16.666666666666668
-450.0   90.0   16.666666666666668
-500.0   90.0   0.0
-500.0   60.0   16.666666666666668
-450.0   90.0   16.666666666666668
-450.0   60.0   16.666666666666668
-450.0   60.0   0.0
-500.0   60.0   16.666666666666668
-450.0   90.0   16.666666666666668
-450.0   60.0   0.0
-500.0   90.0   0.0
-500.0   60.0   16.666666666666668
-450.0   60.0   16.666666666666668
-500.0   90.0   16.666666666666668
-500.0   60.0   33.333333333333336
-450.0   60.0   16.666666666666668
-450.0   90.0   16.666666666666668
-500.0   90.0   16.666666666666668
-450.0   90.0   33.333333333333336
-500.0   60.0   33.333333333333336
-500.0   90.0   33.333333333333336
-450.0   90.0   33.333333333333336
-500.0   90.0   16.666666666666668
-500.0   60.0   33.333333333333336
-450.0   90.0   33.333333333333336
-450.0   60.0   33.333333333333336
-450.0   60.0   16.666666666666668
-500.0   60.0   33.333333333333336
-450.0   90.0   33.333333333333336
-450.0   60.0   16.666666666666668
-500.0   90.0   16.666666666666668
-500.0   60.0   33.333333333333336
-450.0   60.0   33.333333333333336
-500.0   90.0   33.333333333333336
-500.0   60.0   50.0
-450.0   60.0   33.333333333333336
-450.0   90.0   33.333333333333336
-500.0   90.0   33.333333333333336
-450.0   90.0   50.0
-500.0   60.0   50.0
-500.0   90.0   50.0
-450.0   90.0   50.0
-500.0   90.0   33.333333333333336
-500.0   60.0   50.0
-450.0   90.0   50.0
-450.0   60.0   50.0
-450.0   60.0   33.333333333333336
-500.0   60.0   50.0
-450.0   90.0   50.0
-450.0   60.0   33.333333333333336
-500.0   90.0   33.333333333333336
-500.0   90.0   0.0
-450.0   90.0   0.0
-500.0   120.0   0.0
-500.0   90.0   16.666666666666668
-450.0   90.0   0.0
-450.0   120.0   0.0
-500.0   120.0   0.0
-450.0   120.0   16.666666666666668
-500.0   90.0   16.666666666666668
-500.0   120.0   16.666666666666668
-450.0   120.0   16.666666666666668
-500.0   120.0   0.0
-500.0   90.0   16.666666666666668
-450.0   120.0   16.666666666666668
-450.0   90.0   16.666666666666668
-450.0   90.0   0.0
-500.0   90.0   16.666666666666668
-450.0   120.0   16.666666666666668
-450.0   90.0   0.0
-500.0   120.0   0.0
-500.0   90.0   16.666666666666668
-450.0   90.0   16.666666666666668
-500.0   120.0   16.666666666666668
-500.0   90.0   33.333333333333336
-450.0   90.0   16.666666666666668
-450.0   120.0   16.666666666666668
-500.0   120.0   16.666666666666668
-450.0   120.0   33.333333333333336
-500.0   90.0   33.333333333333336
-500.0   120.0   33.333333333333336
-450.0   120.0   33.333333333333336
-500.0   120.0   16.666666666666668
-500.0   90.0   33.333333333333336
-450.0   120.0   33.333333333333336
-450.0   90.0   33.333333333333336
-450.0   90.0   16.666666666666668
-500.0   90.0   33.333333333333336
-450.0   120.0   33.333333333333336
-450.0   90.0   16.666666666666668
-500.0   120.0   16.666666666666668
-500.0   90.0   33.333333333333336
-450.0   90.0   33.333333333333336
-500.0   120.0   33.333333333333336
-500.0   90.0   50.0
-450.0   90.0   33.333333333333336
-450.0   120.0   33.333333333333336
-500.0   120.0   33.333333333333336
-450.0   120.0   50.0
-500.0   90.0   50.0
-500.0   120.0   50.0
-450.0   120.0   50.0
-500.0   120.0   33.333333333333336
-500.0   90.0   50.0
-450.0   120.0   50.0
-450.0   90.0   50.0
-450.0   90.0   33.333333333333336
-500.0   90.0   50.0
-450.0   120.0   50.0
-450.0   90.0   33.333333333333336
-500.0   120.0   33.333333333333336
-500.0   120.0   0.0
-450.0   120.0   0.0
-500.0   150.0   0.0
-500.0   120.0   16.666666666666668
-450.0   120.0   0.0
-450.0   150.0   0.0
-500.0   150.0   0.0
-450.0   150.0   16.666666666666668
-500.0   120.0   16.666666666666668
-500.0   150.0   16.666666666666668
-450.0   150.0   16.666666666666668
-500.0   150.0   0.0
-500.0   120.0   16.666666666666668
-450.0   150.0   16.666666666666668
-450.0   120.0   16.666666666666668
-450.0   120.0   0.0
-500.0   120.0   16.666666666666668
-450.0   150.0   16.666666666666668
-450.0   120.0   0.0
-500.0   150.0   0.0
-500.0   120.0   16.666666666666668
-450.0   120.0   16.666666666666668
-500.0   150.0   16.666666666666668
-500.0   120.0   33.333333333333336
-450.0   120.0   16.666666666666668
-450.0   150.0   16.666666666666668
-500.0   150.0   16.666666666666668
-450.0   150.0   33.333333333333336
-500.0   120.0   33.333333333333336
-500.0   150.0   33.333333333333336
-450.0   150.0   33.333333333333336
-500.0   150.0   16.666666666666668
-500.0   120.0   33.333333333333336
-450.0   150.0   33.333333333333336
-450.0   120.0   33.333333333333336
-450.0   120.0   16.666666666666668
-500.0   120.0   33.333333333333336
-450.0   150.0   33.333333333333336
-450.0   120.0   16.666666666666668
-500.0   150.0   16.666666666666668
-500.0   120.0   33.333333333333336
-450.0   120.0   33.333333333333336
-500.0   150.0   33.333333333333336
-500.0   120.0   50.0
-450.0   120.0   33.333333333333336
-450.0   150.0   33.333333333333336
-500.0   150.0   33.333333333333336
-450.0   150.0   50.0
-500.0   120.0   50.0
-500.0   150.0   50.0
-450.0   150.0   50.0
-500.0   150.0   33.333333333333336
-500.0   120.0   50.0
-450.0   150.0   50.0
-450.0   120.0   50.0
-450.0   120.0   33.333333333333336
-500.0   120.0   50.0
-450.0   150.0   50.0
-450.0   120.0   33.333333333333336
-500.0   150.0   33.333333333333336
-450.0   0.0   0.0
-400.0   0.0   0.0
-450.0   30.0   0.0
-450.0   0.0   16.666666666666668
-400.0   0.0   0.0
-400.0   30.0   0.0
-450.0   30.0   0.0
-400.0   30.0   16.666666666666668
-450.0   0.0   16.666666666666668
-450.0   30.0   16.666666666666668
-400.0   30.0   16.666666666666668
-450.0   30.0   0.0
-450.0   0.0   16.666666666666668
-400.0   30.0   16.666666666666668
-400.0   0.0   16.666666666666668
-400.0   0.0   0.0
-450.0   0.0   16.666666666666668
-400.0   30.0   16.666666666666668
-400.0   0.0   0.0
-450.0   30.0   0.0
-450.0   0.0   16.666666666666668
-400.0   0.0   16.666666666666668
-450.0   30.0   16.666666666666668
[...]
          <PointData>  
             <DataArray type="Float64" NumberOfComponents="3" Name="Strains" format="ascii">   
-0.00011314908742652609   0.0   -7.420835994025542e-05
-0.00011314908742652609   0.0   -7.420835994025542e-05
-0.00011314908742652609   0.0   -7.420835994025542e-05
-0.00011314908742652609   0.0   -7.420835994025542e-05
-7.200405950255234e-05   1.254159409352107e-05   1.8916430558133098e-06
-7.200405950255234e-05   1.254159409352107e-05   1.8916430558133098e-06
-7.200405950255234e-05   1.254159409352107e-05   1.8916430558133098e-06
-7.200405950255234e-05   1.254159409352107e-05   1.8916430558133098e-06
-7.05837890498656e-05   0.0   -7.00312578678042e-05
-7.05837890498656e-05   0.0   -7.00312578678042e-05
-7.05837890498656e-05   0.0   -7.00312578678042e-05
-7.05837890498656e-05   0.0   -7.00312578678042e-05
-0.00011842049591123408   1.5047285845796909e-05   6.682153936654427e-07
-0.00011842049591123408   1.5047285845796909e-05   6.682153936654427e-07
-0.00011842049591123408   1.5047285845796909e-05   6.682153936654427e-07
-0.00011842049591123408   1.5047285845796909e-05   6.682153936654427e-07
-9.186643823819568e-05   3.4809183937093487e-06   -3.6648726923479336e-05
-9.186643823819568e-05   3.4809183937093487e-06   -3.6648726923479336e-05
-9.186643823819568e-05   3.4809183937093487e-06   -3.6648726923479336e-05
-9.186643823819568e-05   3.4809183937093487e-06   -3.6648726923479336e-05
-0.0001184204959112343   0.0   -7.905962937528235e-05
-0.0001184204959112343   0.0   -7.905962937528235e-05
-0.0001184204959112343   0.0   -7.905962937528235e-05
-0.0001184204959112343   0.0   -7.905962937528235e-05
-7.05837890498656e-05   1.5047285845796923e-05   9.696586901143594e-06
-7.05837890498656e-05   1.5047285845796923e-05   9.696586901143594e-06
-7.05837890498656e-05   1.5047285845796923e-05   9.696586901143594e-06
-7.05837890498656e-05   1.5047285845796923e-05   9.696586901143594e-06
-7.078688856273723e-05   0.0   -7.174646460613922e-05
-7.078688856273723e-05   0.0   -7.174646460613922e-05
-7.078688856273723e-05   0.0   -7.174646460613922e-05
-7.078688856273723e-05   0.0   -7.174646460613922e-05
-0.00012212440946167042   1.6120008729440905e-05   4.144064987751867e-06
-0.00012212440946167042   1.6120008729440905e-05   4.144064987751867e-06
-0.00012212440946167042   1.6120008729440905e-05   4.144064987751867e-06
-0.00012212440946167042   1.6120008729440905e-05   4.144064987751867e-06
-9.46036922369856e-05   6.094303974285934e-06   -3.5708374200296486e-05
-9.46036922369856e-05   6.094303974285934e-06   -3.5708374200296486e-05
-9.46036922369856e-05   6.094303974285934e-06   -3.5708374200296486e-05
-9.46036922369856e-05   6.094303974285934e-06   -3.5708374200296486e-05
-0.00012212440946167064   0.0   -8.141846984380378e-05
-0.00012212440946167064   0.0   -8.141846984380378e-05
-0.00012212440946167064   0.0   -8.141846984380378e-05
-0.00012212440946167064   0.0   -8.141846984380378e-05
-7.078688856273723e-05   1.612000872944092e-05   1.3816070225416429e-05
-7.078688856273723e-05   1.612000872944092e-05   1.3816070225416429e-05
-7.078688856273723e-05   1.612000872944092e-05   1.3816070225416429e-05
-7.078688856273723e-05   1.612000872944092e-05   1.3816070225416429e-05
-7.075423645048972e-05   0.0   -7.218656714888316e-05
-7.075423645048972e-05   0.0   -7.218656714888316e-05
-7.075423645048972e-05   0.0   -7.218656714888316e-05
-7.075423645048972e-05   0.0   -7.218656714888316e-05
-0.00013009964965978265   1.83612140760883e-05   1.5705726420952416e-05
-0.00013009964965978265   1.83612140760883e-05   1.5705726420952416e-05
-0.00013009964965978265   1.83612140760883e-05   1.5705726420952416e-05
-0.00013009964965978265   1.83612140760883e-05   1.5705726420952416e-05
-9.643932295608001e-05   7.693252245767177e-06   -3.3994040987025934e-05
-9.643932295608001e-05   7.693252245767177e-06   -3.3994040987025934e-05
-9.643932295608001e-05   7.693252245767177e-06   -3.3994040987025934e-05
-9.643932295608001e-05   7.693252245767177e-06   -3.3994040987025934e-05
-7.200405950255247e-05   0.0   -6.668340348414277e-05
-7.200405950255247e-05   0.0   -6.668340348414277e-05
-7.200405950255247e-05   0.0   -6.668340348414277e-05
-7.200405950255247e-05   0.0   -6.668340348414277e-05
-3.278636524706756e-05   4.601084256259202e-06   1.440070828754218e-06
-3.278636524706756e-05   4.601084256259202e-06   1.440070828754218e-06
-3.278636524706756e-05   4.601084256259202e-06   1.440070828754218e-06
-3.278636524706756e-05   4.601084256259202e-06   1.440070828754218e-06
-3.153740051551573e-05   0.0   -6.610229958982957e-05
-3.153740051551573e-05   0.0   -6.610229958982957e-05
-3.153740051551573e-05   0.0   -6.610229958982957e-05
-3.153740051551573e-05   0.0   -6.610229958982957e-05
-7.05837890498656e-05   6.548263796624389e-06   -4.953943643887739e-06
-7.05837890498656e-05   6.548263796624389e-06   -4.953943643887739e-06
-7.05837890498656e-05   6.548263796624389e-06   -4.953943643887739e-06
-7.05837890498656e-05   6.548263796624389e-06   -4.953943643887739e-06
-5.1770730009034004e-05   4.842532452610016e-07   -3.2670635714455467e-05
-5.1770730009034004e-05   4.842532452610016e-07   -3.2670635714455467e-05
-5.1770730009034004e-05   4.842532452610016e-07   -3.2670635714455467e-05
-5.1770730009034004e-05   4.842532452610016e-07   -3.2670635714455467e-05
-7.058378904986555e-05   0.0   -7.003125786780413e-05
-7.058378904986555e-05   0.0   -7.003125786780413e-05
-7.058378904986555e-05   0.0   -7.003125786780413e-05
-7.058378904986555e-05   0.0   -7.003125786780413e-05
-3.153740051551573e-05   6.548263796624389e-06   -1.0249853659131274e-06
-3.153740051551573e-05   6.548263796624389e-06   -1.0249853659131274e-06
-3.153740051551573e-05   6.548263796624389e-06   -1.0249853659131274e-06
-3.153740051551573e-05   6.548263796624389e-06   -1.0249853659131274e-06
-3.083759521899621e-05   0.0   -6.693289741483972e-05
-3.083759521899621e-05   0.0   -6.693289741483972e-05
-3.083759521899621e-05   0.0   -6.693289741483972e-05
-3.083759521899621e-05   0.0   -6.693289741483972e-05
-7.078688856273723e-05   8.022611985499168e-06   -5.164309033237524e-06
-7.078688856273723e-05   8.022611985499168e-06   -5.164309033237524e-06
-7.078688856273723e-05   8.022611985499168e-06   -5.164309033237524e-06
-7.078688856273723e-05   8.022611985499168e-06   -5.164309033237524e-06
-5.0710692134430804e-05   2.581967044137057e-06   -3.5360249448930675e-05
-5.0710692134430804e-05   2.581967044137057e-06   -3.5360249448930675e-05
-5.0710692134430804e-05   2.581967044137057e-06   -3.5360249448930675e-05
-5.0710692134430804e-05   2.581967044137057e-06   -3.5360249448930675e-05
-7.078688856273723e-05   0.0   -7.174646460613922e-05
-7.078688856273723e-05   0.0   -7.174646460613922e-05
-7.078688856273723e-05   0.0   -7.174646460613922e-05
-7.078688856273723e-05   0.0   -7.174646460613922e-05
-3.083759521899621e-05   8.022611985499168e-06   -3.507418419380258e-07
-3.083759521899621e-05   8.022611985499168e-06   -3.507418419380258e-07
-3.083759521899621e-05   8.022611985499168e-06   -3.507418419380258e-07
-3.083759521899621e-05   8.022611985499168e-06   -3.507418419380258e-07
-3.020103518915206e-05   0.0   -6.658599500318117e-05
-3.020103518915206e-05   0.0   -6.658599500318117e-05
-3.020103518915206e-05   0.0   -6.658599500318117e-05
-3.020103518915206e-05   0.0   -6.658599500318117e-05
-7.075423645048954e-05   9.334286909503197e-06   -4.597898379987017e-06
-7.075423645048954e-05   9.334286909503197e-06   -4.597898379987017e-06
-7.075423645048954e-05   9.334286909503197e-06   -4.597898379987017e-06
-7.075423645048954e-05   9.334286909503197e-06   -4.597898379987017e-06
-5.0493961875944636e-05   4.300391335798337e-06   -3.534468532667255e-05
-5.0493961875944636e-05   4.300391335798337e-06   -3.534468532667255e-05
-5.0493961875944636e-05   4.300391335798337e-06   -3.534468532667255e-05
-5.0493961875944636e-05   4.300391335798337e-06   -3.534468532667255e-05
-3.278636524706761e-05   0.0   -6.392275293038724e-05
-3.278636524706761e-05   0.0   -6.392275293038724e-05
-3.278636524706761e-05   0.0   -6.392275293038724e-05
-3.278636524706761e-05   0.0   -6.392275293038724e-05
4.27044190677688e-06   -5.884724769176315e-07   -2.5144911601302672e-06
4.27044190677688e-06   -5.884724769176315e-07   -2.5144911601302672e-06
4.27044190677688e-06   -5.884724769176315e-07   -2.5144911601302672e-06
4.27044190677688e-06   -5.884724769176315e-07   -2.5144911601302672e-06
5.065780927413941e-06   0.0   -6.540601310508855e-05
5.065780927413941e-06   0.0   -6.540601310508855e-05
5.065780927413941e-06   0.0   -6.540601310508855e-05
5.065780927413941e-06   0.0   -6.540601310508855e-05
-3.153740051551573e-05   1.1604774745679766e-06   -5.096997184946765e-06
-3.153740051551573e-05   1.1604774745679766e-06   -5.096997184946765e-06
-3.153740051551573e-05   1.1604774745679766e-06   -5.096997184946765e-06
-3.153740051551573e-05   1.1604774745679766e-06   -5.096997184946765e-06
-1.3860292159826803e-05   -1.236050145584611e-06   -3.312092787233662e-05
-1.3860292159826803e-05   -1.236050145584611e-06   -3.312092787233662e-05
-1.3860292159826803e-05   -1.236050145584611e-06   -3.312092787233662e-05
-1.3860292159826803e-05   -1.236050145584611e-06   -3.312092787233662e-05
-3.153740051551573e-05   0.0   -6.610229958982957e-05
-3.153740051551573e-05   0.0   -6.610229958982957e-05
-3.153740051551573e-05   0.0   -6.610229958982957e-05
-3.153740051551573e-05   0.0   -6.610229958982957e-05
5.065780927413951e-06   1.1604774745679766e-06   -4.400710700205956e-06
5.065780927413951e-06   1.1604774745679766e-06   -4.400710700205956e-06
5.065780927413951e-06   1.1604774745679766e-06   -4.400710700205956e-06
5.065780927413951e-06   1.1604774745679766e-06   -4.400710700205956e-06
5.692978815543986e-06   0.0   -6.531275023970772e-05
5.692978815543986e-06   0.0   -6.531275023970772e-05
5.692978815543986e-06   0.0   -6.531275023970772e-05
5.692978815543986e-06   0.0   -6.531275023970772e-05
-3.083759521899616e-05   2.700245291886464e-06   -6.048607357272704e-06
-3.083759521899616e-05   2.700245291886464e-06   -6.048607357272704e-06
-3.083759521899616e-05   2.700245291886464e-06   -6.048607357272704e-06
-3.083759521899616e-05   2.700245291886464e-06   -6.048607357272704e-06
-1.2922210849985867e-05   6.579577917681083e-07   -3.468220880555225e-05
-1.2922210849985867e-05   6.579577917681083e-07   -3.468220880555225e-05
-1.2922210849985867e-05   6.579577917681083e-07   -3.468220880555225e-05
-1.2922210849985867e-05   6.579577917681083e-07   -3.468220880555225e-05
-3.083759521899621e-05   0.0   -6.693289741483972e-05
-3.083759521899621e-05   0.0   -6.693289741483972e-05
-3.083759521899621e-05   0.0   -6.693289741483972e-05
-3.083759521899621e-05   0.0   -6.693289741483972e-05
5.692978815543996e-06   2.7002452918864777e-06   -4.428460182140843e-06
5.692978815543996e-06   2.7002452918864777e-06   -4.428460182140843e-06
5.692978815543996e-06   2.7002452918864777e-06   -4.428460182140843e-06
5.692978815543996e-06   2.7002452918864777e-06   -4.428460182140843e-06
6.538217918131044e-06   0.0   -6.389563754402155e-05
6.538217918131044e-06   0.0   -6.389563754402155e-05
6.538217918131044e-06   0.0   -6.389563754402155e-05
6.538217918131044e-06   0.0   -6.389563754402155e-05
-3.0201035189152032e-05   4.483929098599276e-06   -5.353906491042658e-06
-3.0201035189152032e-05   4.483929098599276e-06   -5.353906491042658e-06
-3.0201035189152032e-05   4.483929098599276e-06   -5.353906491042658e-06
-3.0201035189152032e-05   4.483929098599276e-06   -5.353906491042658e-06
-1.2149688650432557e-05   2.5310498923483907e-06   -3.426775653182455e-05
-1.2149688650432557e-05   2.5310498923483907e-06   -3.426775653182455e-05
-1.2149688650432557e-05   2.5310498923483907e-06   -3.426775653182455e-05
-1.2149688650432557e-05   2.5310498923483907e-06   -3.426775653182455e-05
4.270441906776888e-06   0.0   -6.427583641653783e-05
4.270441906776888e-06   0.0   -6.427583641653783e-05
4.270441906776888e-06   0.0   -6.427583641653783e-05
4.270441906776888e-06   0.0   -6.427583641653783e-05
4.449160761435791e-05   -5.2183898416344545e-06   -3.715941422167355e-07
4.449160761435791e-05   -5.2183898416344545e-06   -3.715941422167355e-07
4.449160761435791e-05   -5.2183898416344545e-06   -3.715941422167355e-07
4.449160761435791e-05   -5.2183898416344545e-06   -3.715941422167355e-07
4.456496529891497e-05   0.0   -6.776708171273477e-05
4.456496529891497e-05   0.0   -6.776708171273477e-05
4.456496529891497e-05   0.0   -6.776708171273477e-05
4.456496529891497e-05   0.0   -6.776708171273477e-05
5.065780927413959e-06   -3.935114346076643e-06   4.259608474128919e-07
5.065780927413959e-06   -3.935114346076643e-06   4.259608474128919e-07
5.065780927413959e-06   -3.935114346076643e-06   4.259608474128919e-07
5.065780927413959e-06   -3.935114346076643e-06   4.259608474128919e-07
2.441770360284593e-05   -2.9093710801641234e-06   -3.244268957118787e-05
2.441770360284593e-05   -2.9093710801641234e-06   -3.244268957118787e-05
2.441770360284593e-05   -2.9093710801641234e-06   -3.244268957118787e-05
2.441770360284593e-05   -2.9093710801641234e-06   -3.244268957118787e-05
5.065780927413959e-06   0.0   -6.540601310508878e-05
5.065780927413959e-06   0.0   -6.540601310508878e-05
5.065780927413959e-06   0.0   -6.540601310508878e-05
5.065780927413959e-06   0.0   -6.540601310508878e-05
4.456496529891497e-05   -3.935114346076643e-06   -1.9351077602330972e-06
4.456496529891497e-05   -3.935114346076643e-06   -1.9351077602330972e-06
4.456496529891497e-05   -3.935114346076643e-06   -1.9351077602330972e-06
4.456496529891497e-05   -3.935114346076643e-06   -1.9351077602330972e-06
4.4369139708314404e-05   0.0   -6.679935213655679e-05
4.4369139708314404e-05   0.0   -6.679935213655679e-05
4.4369139708314404e-05   0.0   -6.679935213655679e-05
4.4369139708314404e-05   0.0   -6.679935213655679e-05
5.692978815543996e-06   -2.477669828081588e-06   -8.524820850905106e-07
5.692978815543996e-06   -2.477669828081588e-06   -8.524820850905106e-07
5.692978815543996e-06   -2.477669828081588e-06   -8.524820850905106e-07
5.692978815543996e-06   -2.477669828081588e-06   -8.524820850905106e-07
2.4717460317864183e-05   -1.161115859556674e-06   -3.334988363673906e-05
2.4717460317864183e-05   -1.161115859556674e-06   -3.334988363673906e-05
2.4717460317864183e-05   -1.161115859556674e-06   -3.334988363673906e-05
2.4717460317864183e-05   -1.161115859556674e-06   -3.334988363673906e-05
5.692978815543991e-06   0.0   -6.531275023970778e-05
5.692978815543991e-06   0.0   -6.531275023970778e-05
5.692978815543991e-06   0.0   -6.531275023970778e-05
5.692978815543991e-06   0.0   -6.531275023970778e-05
4.4369139708314404e-05   -2.477669828081588e-06   -2.339083981939464e-06
4.4369139708314404e-05   -2.477669828081588e-06   -2.339083981939464e-06
4.4369139708314404e-05   -2.477669828081588e-06   -2.339083981939464e-06
4.4369139708314404e-05   -2.477669828081588e-06   -2.339083981939464e-06
4.522367023923503e-05   0.0   -6.42069700695974e-05
4.522367023923503e-05   0.0   -6.42069700695974e-05
4.522367023923503e-05   0.0   -6.42069700695974e-05
4.522367023923503e-05   0.0   -6.42069700695974e-05
6.538217918131056e-06   -5.188875426262506e-07   5.801163244849476e-07
6.538217918131056e-06   -5.188875426262506e-07   5.801163244849476e-07
6.538217918131056e-06   -5.188875426262506e-07   5.801163244849476e-07
6.538217918131056e-06   -5.188875426262506e-07   5.801163244849476e-07
2.545832452738949e-05   9.214834750920334e-07   -3.181761730157671e-05
2.545832452738949e-05   9.214834750920334e-07   -3.181761730157671e-05
2.545832452738949e-05   9.214834750920334e-07   -3.181761730157671e-05
2.545832452738949e-05   9.214834750920334e-07   -3.181761730157671e-05
4.449160761435791e-05   0.0   -6.740687032151849e-05
4.449160761435791e-05   0.0   -6.740687032151849e-05
4.449160761435791e-05   0.0   -6.740687032151849e-05
4.449160761435791e-05   0.0   -6.740687032151849e-05
0.00010041572391738955   -1.3224721959967294e-05   1.786515700755441e-05
0.00010041572391738955   -1.3224721959967294e-05   1.786515700755441e-05
0.00010041572391738955   -1.3224721959967294e-05   1.786515700755441e-05
0.00010041572391738955   -1.3224721959967294e-05   1.786515700755441e-05
9.429909323384617e-05   0.0   -7.452018616348763e-05
9.429909323384617e-05   0.0   -7.452018616348763e-05
9.429909323384617e-05   0.0   -7.452018616348763e-05
9.429909323384617e-05   0.0   -7.452018616348763e-05
4.456496529891497e-05   -1.1255174084588121e-05   1.512313151215056e-05
4.456496529891497e-05   -1.1255174084588121e-05   1.512313151215056e-05
4.456496529891497e-05   -1.1255174084588121e-05   1.512313151215056e-05
4.456496529891497e-05   -1.1255174084588121e-05   1.512313151215056e-05
6.939535042410204e-05   -5.92776320164095e-06   -2.9457290226262808e-05
6.939535042410204e-05   -5.92776320164095e-06   -2.9457290226262808e-05
6.939535042410204e-05   -5.92776320164095e-06   -2.9457290226262808e-05
6.939535042410204e-05   -5.92776320164095e-06   -2.9457290226262808e-05
4.4564965298914934e-05   0.0   -6.776708171273471e-05
4.4564965298914934e-05   0.0   -6.776708171273471e-05
4.4564965298914934e-05   0.0   -6.776708171273471e-05
4.4564965298914934e-05   0.0   -6.776708171273471e-05
9.429909323384584e-05   -1.1255174084588067e-05   8.37002706139764e-06
9.429909323384584e-05   -1.1255174084588067e-05   8.37002706139764e-06
9.429909323384584e-05   -1.1255174084588067e-05   8.37002706139764e-06
9.429909323384584e-05   -1.1255174084588067e-05   8.37002706139764e-06
9.14762297343337e-05   0.0   -7.297081633630315e-05
9.14762297343337e-05   0.0   -7.297081633630315e-05
9.14762297343337e-05   0.0   -7.297081633630315e-05
9.14762297343337e-05   0.0   -7.297081633630315e-05
4.4369139708314404e-05   -1.0285773666243917e-05   1.1712464573475351e-05
4.4369139708314404e-05   -1.0285773666243917e-05   1.1712464573475351e-05
4.4369139708314404e-05   -1.0285773666243917e-05   1.1712464573475351e-05
4.4369139708314404e-05   -1.0285773666243917e-05   1.1712464573475351e-05
6.80205975166243e-05   -4.336445519640318e-06   -3.127622866166995e-05
6.80205975166243e-05   -4.336445519640318e-06   -3.127622866166995e-05
6.80205975166243e-05   -4.336445519640318e-06   -3.127622866166995e-05
6.80205975166243e-05   -4.336445519640318e-06   -3.127622866166995e-05
4.4369139708314404e-05   0.0   -6.679935213655679e-05
4.4369139708314404e-05   0.0   -6.679935213655679e-05
4.4369139708314404e-05   0.0   -6.679935213655679e-05
4.4369139708314404e-05   0.0   -6.679935213655679e-05
9.14762297343334e-05   -1.028577366624389e-05   5.541000373729009e-06
9.14762297343334e-05   -1.028577366624389e-05   5.541000373729009e-06
9.14762297343334e-05   -1.028577366624389e-05   5.541000373729009e-06
9.14762297343334e-05   -1.028577366624389e-05   5.541000373729009e-06
8.727724697417384e-05   0.0   -6.900572477574157e-05
8.727724697417384e-05   0.0   -6.900572477574157e-05
8.727724697417384e-05   0.0   -6.900572477574157e-05
8.727724697417384e-05   0.0   -6.900572477574157e-05
4.522367023923503e-05   -7.997924510240483e-06   5.882324488634187e-06
4.522367023923503e-05   -7.997924510240483e-06   5.882324488634187e-06
4.522367023923503e-05   -7.997924510240483e-06   5.882324488634187e-06
4.522367023923503e-05   -7.997924510240483e-06   5.882324488634187e-06
6.58231933412442e-05   -1.8386438659874209e-06   -3.214578240126622e-05
6.58231933412442e-05   -1.8386438659874209e-06   -3.214578240126622e-05
6.58231933412442e-05   -1.8386438659874209e-06   -3.214578240126622e-05
6.58231933412442e-05   -1.8386438659874209e-06   -3.214578240126622e-05
-9.821110394649244e-05   1.254159409352107e-05   -6.440486402494874e-05
-9.821110394649244e-05   1.254159409352107e-05   -6.440486402494874e-05
-9.821110394649244e-05   1.254159409352107e-05   -6.440486402494874e-05
-9.821110394649244e-05   1.254159409352107e-05   -6.440486402494874e-05
-6.28999766602814e-05   1.1280752619664684e-05   -6.3094900989107245e-06
-6.28999766602814e-05   1.1280752619664684e-05   -6.3094900989107245e-06