<?xml version="1.0"?> 
<VTKFile type="UnstructuredGrid"> 
   <UnstructuredGrid> 
      <Piece NumberOfPoints="6000"  NumberOfCells="1500">  
          <Points>  
             <DataArray type="Float64" NumberOfComponents="3" format="ascii">   
-500.0   0.0   0.0
-450.0   0.0   0.0
-500.0   30.0   0.0
-500.0   0.0   16.666666666666668
-450.0   0.0   0.0
-450.0   30.0   0.0
-500.0   30.0   0.0
-450.0   30.0   16.666666666666668
-500.0   0.0   16.666666666666668
-500.0   30.0   16.666666666666668
-450.0   30.0   16.666666666666668
-500.0   30.0   0.0
-500.0   0.0   16.666666666666668
-450.0   30.0   16.666666666666668
-450.0   0.0   16.666666666666668
-450.0   0.0   0.0
-500.0   0.0   16.666666666666668
-450.0   30.0   16.666666666666668
-450.0   0.0   0.0
-500.0   30.0   0.0
-500.0   0.0   16.666666666666668
-450.0   0.0   16.666666666666668
-500.0   30.0   16.666666666666668
-500.0   0.0   33.333333333333336
-450.0   0.0   16.666666666666668
-450.0   30.0   16.666666666666668
-500.0   30.0   16.666666666666668
-450.0   30.0   33.333333333333336
-500.0   0.0   33.333333333333336
-500.0   30.0   33.333333333333336
-450.0   30.0   33.333333333333336
-500.0   30.0   16.666666666666668
-500.0   0.0   33.333333333333336
-450.0   30.0   33.333333333333336
-450.0   0.0   33.333333333333336
-450.0   0.0   16.666666666666668
-500.0   0.0   33.333333333333336
-450.0   30.0   33.333333333333336
-450.0   0.0   16.666666666666668
-500.0   30.0   16.666666666666668
-500.0   0.0   33.333333333333336
-450.0   0.0   33.333333333333336
-500.0   30.0   33.333333333333336
-500.0   0.0   50.0
-450.0   0.0   33.333333333333336
-450.0   30.0   33.333333333333336
-500.0   30.0   33.333333333333336
-450.0   30.0   50.0
-500.0   0.0   50.0
-500.0   30.0   50.0
-450.0   30.0   50.0
-500.0   30.0   33.333333333333336
-500.0   0.0   50.0
-450.0   30.0   50.0
-450.0   0.0   50.0
-450.0   0.0   33.333333333333336
-500.0   0.0   50.0
-450.0   30.0   50.0
-450.0   0.0   33.333333333333336
-500.0   30.0   33.333333333333336
-500.0   30.0   0.0
-450.0   30.0   0.0
-500.0   60.0   0.0
-500.0   30.0   16.666666666666668
-450.0   30.0   0.0
-450.0   60.0   0.0
-500.0   60.0   0.0
-450.0   60.0   16.666666666666668
-500.0   30.0   16.666666666666668
-500.0   60.0   16.666666666666668
-450.0   60.0   16.666666666666668
-500.0   60.0   0.0
-500.0   30.0   16.666666666666668
-450.0   60.0   16.666666666666668
-450.0   30.0   16.666666666666668
-450.0   30.0   0.0
-500.0   30.0   16.666666666666668
-450.0   60.0   16.666666666666668
-450.0   30.0   0.0
-500.0   60.0   0.0
-500.0   30.0   16.666666666666668
-450.0   30.0   16.666666666666668
-500.0   60.0   16.666666666666668
-500.0   30.0   33.333333333333336
-450.0   30.0   16.666666666666668
-450.0   60.0   16.666666666666668
-500.0   60.0   16.666666666666668
-450.0   60.0   33.333333333333336
-500.0   30.0   33.333333333333336
-500.0   60.0   33.333333333333336
-450.0   60.0   33.333333333333336
-500.0   60.0   16.666666666666668
-500.0   30.0   33.333333333333336
-450.0   60.0   33.333333333333336
-450.0   30.0   33.333333333333336
-450.0   30.0   16.666666666666668
-500.0   30.0   33.333333333333336
-450.0   60.0   33.333333333333336
-450.0   30.0   16.666666666666668
-500.0   60.0   16.666666666666668
-500.0   30.0   33.333333333333336
-450.0   30.0   33.333333333333336
-500.0   60.0   33.333333333333336
-500.0   30.0   50.0
-450.0   30.0   33.333333333333336
-450.0   60.0   33.333333333333336
-500.0   60.0   33.333333333333336
-450.0   60.0   50.0
-500.0   30.0   50.0
-500.0   60.0   50.0
-450.0   60.0   50.0
-500.0   60.0   33.333333333333336
-500.0   30.0   50.0
-450.0   60.0   50.0
-450.0   30.0   50.0
-450.0   30.0   33.333333333333336
-500.0   30.0   50.0
-450.0   60.0   50.0
-450.0   30.0   33.333333333333336
-500.0   60.0   33.333333333333336
-500.0   60.0   0.0
-450.0   60.0   0.0
-500.0   90.0   0.0
-500.0   60.0   16.666666666666668
-450.0   60.0   0.0
-450.0   90.0   0.0
-500.0   90.0   0.0
-450.0   90.0   16.666666666666668
-500.0   60.0   16.666666666666668
-500.0   90.0   16.666666666666668
-450.0   90.0   16.666666666666668
-500.0   90.0   0.0
-500.0   60.0   16.666666666666668
-450.0   90.0   16.666666666666668
-450.0   60.0   16.666666666666668
-450.0   60.0   0.0
-500.0   60.0   16.666666666666668
-450.0   90.0   16.666666666666668
-450.0   60.0   0.0
-500.0   90.0   0.0
-500.0   60.0   16.666666666666668
-450.0   60.0   16.666666666666668
-500.0   90.0   16.666666666666668
-500.0   60.0   33.333333333333336
-450.0   60.0   16.666666666666668
-450.0   90.0   16.666666666666668
-500.0   90.0   16.666666666666668
-450.0   90.0   33.333333333333336
-500.0   60.0   33.333333333333336
-500.0   90.0   33.333333333333336
-450.0   90.0   33.333333333333336
-500.0   90.0   16.666666666666668
-500.0   60.0   33.333333333333336
-450.0   90.0   33.333333333333336
-450.0   60.0   33.333333333333336
-450.0   60.0   16.666666666666668
-500.0   60.0   33.333333333333336
-450.0   90.0   33.333333333333336
-450.0   60.0   16.666666666666668
-500.0   90.0   16.666666666666668
-500.0   60.0   33.333333333333336
-450.0   60.0   33.333333333333336
-500.0   90.0   33.333333333333336
-500.0   60.0   50.0
-450.0   60.0   33.333333333333336
-450.0   90.0   33.333333333333336
-500.0   90.0   33.333333333333336
-450.0   90.0   50.0
-500.0   60.0   50.0
-500.0   90.0   50.0
-450.0   90.0   50.0
-500.0   90.0   33.333333333333336
-500.0   60.0   50.0
-450.0   90.0   50.0
-450.0   60.0   50.0
-450.0   60.0   33.333333333333336
-500.0   60.0   50.0
-450.0   90.0   50.0
-450.0   60.0   33.333333333333336
-500.0   90.0   33.333333333333336
-500.0   90.0   0.0
-450.0   90.0   0.0
-500.0   120.0   0.0
-500.0   90.0   16.666666666666668
-450.0   90.0   0.0
-450.0   120.0   0.0
-500.0   120.0   0.0
-450.0   120.0   16.666666666666668
-500.0   90.0   16.666666666666668
-500.0   120.0   16.666666666666668
-450.0   120.0   16.666666666666668
-500.0   120.0   0.0
-500.0   90.0   16.666666666666668
-450.0   120.0   16.666666666666668
-450.0   90.0   16.666666666666668
-450.0   90.0   0.0
-500.0   90.0   16.666666666666668
-450.0   120.0   16.666666666666668
-450.0   90.0   0.0
-500.0   120.0   0.0
-500.0   90.0   16.666666666666668
-450.0   90.0   16.666666666666668
-500.0   120.0   16.666666666666668
-500.0   90.0   33.333333333333336
-450.0   90.0   16.666666666666668
-450.0   120.0   16.666666666666668
-500.0   120.0   16.666666666666668
-450.0   120.0   33.333333333333336
-500.0   90.0   33.333333333333336
-500.0   120.0   33.333333333333336
-450.0   120.0   33.333333333333336
-500.0   120.0   16.666666666666668
-500.0   90.0   33.333333333333336
-450.0   120.0   33.333333333333336
-450.0   90.0   33.333333333333336
-450.0   90.0   16.666666666666668
-500.0   90.0   33.333333333333336
-450.0   120.0   33.333333333333336
-450.0   90.0   16.666666666666668
-500.0   120.0   16.666666666666668
-500.0   90.0   33.333333333333336
-450.0   90.0   33.333333333333336
-500.0   120.0   33.333333333333336
-500.0   90.0   50.0
-450.0   90.0   33.333333333333336
-450.0   120.0   33.333333333333336
-500.0   120.0   33.333333333333336
-450.0   120.0   50.0
-500.0   90.0   50.0
-500.0   120.0   50.0
-450.0   120.0   50.0
-500.0   120.0   33.333333333333336
-500.0   90.0   50.0
-450.0   120.0   50.0
-450.0   90.0   50.0
-450.0   90.0   33.333333333333336
-500.0   90.0   50.0
-450.0   120.0   50.0
-450.0   90.0   33.333333333333336
-500.0   120.0   33.333333333333336
-500.0   120.0   0.0
-450.0   120.0   0.0
-500.0   150.0   0.0
-500.0   120.0   16.666666666666668
-450.0   120.0   0.0
-450.0   150.0   0.0
-500.0   150.0   0.0
-450.0   150.0   16.666666666666668
-500.0   120.0   16.666666666666668
-500.0   150.0   16.666666666666668
-450.0   150.0   16.666666666666668
-500.0   150.0   0.0
-500.0   120.0   16.666666666666668
-450.0   150.0   16.666666666666668
-450.0   120.0   16.666666666666668
-450.0   120.0   0.0
-500.0   120.0   16.666666666666668
-450.0   150.0   16.666666666666668
-450.0   120.0   0.0
-500.0   150.0   0.0
-500.0   120.0   16.666666666666668
-450.0   120.0   16.666666666666668
-500.0   150.0   16.666666666666668
-500.0   120.0   33.333333333333336
-450.0   120.0   16.666666666666668
-450.0   150.0   16.666666666666668
-500.0   150.0   16.666666666666668
-450.0   150.0   33.333333333333336
-500.0   120.0   33.333333333333336
-500.0   150.0   33.333333333333336
-450.0   150.0   33.333333333333336
-500.0   150.0   16.666666666666668
-500.0   120.0   33.333333333333336
-450.0   150.0   33.333333333333336
-450.0   120.0   33.333333333333336
-450.0   120.0   16.666666666666668
-500.0   120.0   33.333333333333336
-450.0   150.0   33.333333333333336
-450.0   120.0   16.666666666666668
-500.0   150.0   16.666666666666668
-500.0   120.0   33.333333333333336
-450.0   120.0   33.333333333333336
-500.0   150.0   33.333333333333336
-500.0   120.0   50.0
-450.0   120.0   33.333333333333336
-450.0   150.0   33.333333333333336
-500.0   150.0   33.333333333333336
-450.0   150.0   50.0
-500.0   120.0   50.0
-500.0   150.0   50.0
-450.0   150.0   50.0
-500.0   150.0   33.333333333333336
-500.0   120.0   50.0
-450.0   150.0   50.0
-450.0   120.0   50.0
-450.0   120.0   33.333333333333336
-500.0   120.0   50.0
-450.0   150.0   50.0
-450.0   120.0   33.333333333333336
-500.0   150.0   33.333333333333336
-450.0   0.0   0.0
-400.0   0.0   0.0
-450.0   30.0   0.0
-450.0   0.0   16.666666666666668
-400.0   0.0   0.0
-400.0   30.0   0.0
-450.0   30.0   0.0
-400.0   30.0   16.666666666666668
-450.0   0.0   16.666666666666668
-450.0   30.0   16.666666666666668
-400.0   30.0   16.666666666666668
-450.0   30.0   0.0
-450.0   0.0   16.666666666666668
-400.0   30.0   16.666666666666668
-400.0   0.0   16.666666666666668
-400.0   0.0   0.0
-450.0   0.0   16.666666666666668
-400.0   30.0   16.666666666666668
-400.0   0.0   0.0
-450.0   30.0   0.0
-450.0   0.0   16.666666666666668
-400.0   0.0   16.666666666666668
-450.0   30.0   16.666666666666668
[...]
          <PointData>  
             <DataArray type="Float64" NumberOfComponents="3" Name="Strains" format="ascii">   
-5.056313829227257e-05   0.0   -3.330651037324775e-05
-5.056313829227257e-05   0.0   -3.330651037324775e-05
-5.056313829227257e-05   0.0   -3.330651037324775e-05
-5.056313829227257e-05   0.0   -3.330651037324775e-05
-3.2162252911419476e-05   5.585260096377495e-06   7.127879860005019e-07
-3.2162252911419476e-05   5.585260096377495e-06   7.127879860005019e-07
-3.2162252911419476e-05   5.585260096377495e-06   7.127879860005019e-07
-3.2162252911419476e-05   5.585260096377495e-06   7.127879860005019e-07
-3.151794217797706e-05   0.0   -3.145082094114642e-05
-3.151794217797706e-05   0.0   -3.145082094114642e-05
-3.151794217797706e-05   0.0   -3.145082094114642e-05
-3.151794217797706e-05   0.0   -3.145082094114642e-05
-5.2906520832374385e-05   6.710309663165127e-06   1.706243516168412e-07
-5.2906520832374385e-05   6.710309663165127e-06   1.706243516168412e-07
-5.2906520832374385e-05   6.710309663165127e-06   1.706243516168412e-07
-5.2906520832374385e-05   6.710309663165127e-06   1.706243516168412e-07
-4.104054023512474e-05   1.5464078600844427e-06   -1.6507668895284122e-05
-4.104054023512474e-05   1.5464078600844427e-06   -1.6507668895284122e-05
-4.104054023512474e-05   1.5464078600844427e-06   -1.6507668895284122e-05
-4.104054023512474e-05   1.5464078600844427e-06   -1.6507668895284122e-05
-5.290652083237448e-05   0.0   -3.5477006739045505e-05
-5.290652083237448e-05   0.0   -3.5477006739045505e-05
-5.290652083237448e-05   0.0   -3.5477006739045505e-05
-5.290652083237448e-05   0.0   -3.5477006739045505e-05
-3.151794217797706e-05   6.710309663165141e-06   4.1968101495159325e-06
-3.151794217797706e-05   6.710309663165141e-06   4.1968101495159325e-06
-3.151794217797706e-05   6.710309663165141e-06   4.1968101495159325e-06
-3.151794217797706e-05   6.710309663165141e-06   4.1968101495159325e-06
-3.1597912311779395e-05   0.0   -3.22182266753383e-05
-3.1597912311779395e-05   0.0   -3.22182266753383e-05
-3.1597912311779395e-05   0.0   -3.22182266753383e-05
-3.1597912311779395e-05   0.0   -3.22182266753383e-05
-5.454816225218961e-05   7.191186078055626e-06   1.7174782451788212e-06
-5.454816225218961e-05   7.191186078055626e-06   1.7174782451788212e-06
-5.454816225218961e-05   7.191186078055626e-06   1.7174782451788212e-06
-5.454816225218961e-05   7.191186078055626e-06   1.7174782451788212e-06
-4.225221657207686e-05   2.7156500530893333e-06   -1.609044294002929e-05
-4.225221657207686e-05   2.7156500530893333e-06   -1.609044294002929e-05
-4.225221657207686e-05   2.7156500530893333e-06   -1.609044294002929e-05
-4.225221657207686e-05   2.7156500530893333e-06   -1.609044294002929e-05
-5.4548162252189705e-05   0.0   -3.6532938322171686e-05
-5.4548162252189705e-05   0.0   -3.6532938322171686e-05
-5.4548162252189705e-05   0.0   -3.6532938322171686e-05
-5.4548162252189705e-05   0.0   -3.6532938322171686e-05
-3.1597912311779395e-05   7.1911860780556394e-06   6.032189892012209e-06
-3.1597912311779395e-05   7.1911860780556394e-06   6.032189892012209e-06
-3.1597912311779395e-05   7.1911860780556394e-06   6.032189892012209e-06
-3.1597912311779395e-05   7.1911860780556394e-06   6.032189892012209e-06
-3.157125288341892e-05   0.0   -3.241682530889663e-05
-3.157125288341892e-05   0.0   -3.241682530889663e-05
-3.157125288341892e-05   0.0   -3.241682530889663e-05
-3.157125288341892e-05   0.0   -3.241682530889663e-05
-5.8093558326682584e-05   8.198794460607224e-06   6.86774042017862e-06
-5.8093558326682584e-05   8.198794460607224e-06   6.86774042017862e-06
-5.8093558326682584e-05   8.198794460607224e-06   6.86774042017862e-06
-5.8093558326682584e-05   8.198794460607224e-06   6.86774042017862e-06
-4.3059707567804236e-05   3.4300941777292064e-06   -1.532745734155846e-05
-4.3059707567804236e-05   3.4300941777292064e-06   -1.532745734155846e-05
-4.3059707567804236e-05   3.4300941777292064e-06   -1.532745734155846e-05
-4.3059707567804236e-05   3.4300941777292064e-06   -1.532745734155846e-05
-3.216225291141953e-05   0.0   -2.9955354315421248e-05
-3.216225291141953e-05   0.0   -2.9955354315421248e-05
-3.216225291141953e-05   0.0   -2.9955354315421248e-05
-3.216225291141953e-05   0.0   -2.9955354315421248e-05
-1.4657174646691617e-05   2.045334662580212e-06   4.4697692334004683e-07
-1.4657174646691617e-05   2.045334662580212e-06   4.4697692334004683e-07
-1.4657174646691617e-05   2.045334662580212e-06   4.4697692334004683e-07
-1.4657174646691617e-05   2.045334662580212e-06   4.4697692334004683e-07
-1.4088373301639347e-05   0.0   -2.9700471844034673e-05
-1.4088373301639347e-05   0.0   -2.9700471844034673e-05
-1.4088373301639347e-05   0.0   -2.9700471844034673e-05
-1.4088373301639347e-05   0.0   -2.9700471844034673e-05
-3.151794217797706e-05   2.9172484951862465e-06   -2.401539480583571e-06
-3.151794217797706e-05   2.9172484951862465e-06   -2.401539480583571e-06
-3.151794217797706e-05   2.9172484951862465e-06   -2.401539480583571e-06
-3.151794217797706e-05   2.9172484951862465e-06   -2.401539480583571e-06
-2.31253131065294e-05   2.124020594888149e-07   -1.4766346738244434e-05
-2.31253131065294e-05   2.124020594888149e-07   -1.4766346738244434e-05
-2.31253131065294e-05   2.124020594888149e-07   -1.4766346738244434e-05
-2.31253131065294e-05   2.124020594888149e-07   -1.4766346738244434e-05
-3.151794217797703e-05   0.0   -3.1450820941146394e-05
-3.151794217797703e-05   0.0   -3.1450820941146394e-05
-3.151794217797703e-05   0.0   -3.1450820941146394e-05
-3.151794217797703e-05   0.0   -3.1450820941146394e-05
-1.4088373301639347e-05   2.9172484951862465e-06   -6.511903834718229e-07
-1.4088373301639347e-05   2.9172484951862465e-06   -6.511903834718229e-07
-1.4088373301639347e-05   2.9172484951862465e-06   -6.511903834718229e-07
-1.4088373301639347e-05   2.9172484951862465e-06   -6.511903834718229e-07
-1.3765272299990134e-05   0.0   -3.0071449042219045e-05
-1.3765272299990134e-05   0.0   -3.0071449042219045e-05
-1.3765272299990134e-05   0.0   -3.0071449042219045e-05
-1.3765272299990134e-05   0.0   -3.0071449042219045e-05
-3.1597912311779395e-05   3.5779627218654263e-06   -2.497159989022864e-06
-3.1597912311779395e-05   3.5779627218654263e-06   -2.497159989022864e-06
-3.1597912311779395e-05   3.5779627218654263e-06   -2.497159989022864e-06
-3.1597912311779395e-05   3.5779627218654263e-06   -2.497159989022864e-06
-2.2641607238983552e-05   1.149476582439476e-06   -1.5967243426693575e-05
-2.2641607238983552e-05   1.149476582439476e-06   -1.5967243426693575e-05
-2.2641607238983552e-05   1.149476582439476e-06   -1.5967243426693575e-05
-2.2641607238983552e-05   1.149476582439476e-06   -1.5967243426693575e-05
-3.1597912311779395e-05   0.0   -3.22182266753383e-05
-3.1597912311779395e-05   0.0   -3.22182266753383e-05
-3.1597912311779395e-05   0.0   -3.22182266753383e-05
-3.1597912311779395e-05   0.0   -3.22182266753383e-05
-1.3765272299990134e-05   3.5779627218654263e-06   -3.503823559036102e-07
-1.3765272299990134e-05   3.5779627218654263e-06   -3.503823559036102e-07
-1.3765272299990134e-05   3.5779627218654263e-06   -3.503823559036102e-07
-1.3765272299990134e-05   3.5779627218654263e-06   -3.503823559036102e-07
-1.3469590650333933e-05   0.0   -2.99175300570657e-05
-1.3469590650333933e-05   0.0   -2.99175300570657e-05
-1.3469590650333933e-05   0.0   -2.99175300570657e-05
-1.3469590650333933e-05   0.0   -2.99175300570657e-05
-3.1571252883418836e-05   4.165492086384842e-06   -2.2473882537549862e-06
-3.1571252883418836e-05   4.165492086384842e-06   -2.2473882537549862e-06
-3.1571252883418836e-05   4.165492086384842e-06   -2.2473882537549862e-06
-3.1571252883418836e-05   4.165492086384842e-06   -2.2473882537549862e-06
-2.2533751481056655e-05   1.917247181893818e-06   -1.5960943648330777e-05
-2.2533751481056655e-05   1.917247181893818e-06   -1.5960943648330777e-05
-2.2533751481056655e-05   1.917247181893818e-06   -1.5960943648330777e-05
-2.2533751481056655e-05   1.917247181893818e-06   -1.5960943648330777e-05
-1.4657174646691642e-05   0.0   -2.8728153517873124e-05
-1.4657174646691642e-05   0.0   -2.8728153517873124e-05
-1.4657174646691642e-05   0.0   -2.8728153517873124e-05
-1.4657174646691642e-05   0.0   -2.8728153517873124e-05
1.8742159409556848e-06   -2.643850289697018e-07   -1.334466889176033e-06
1.8742159409556848e-06   -2.643850289697018e-07   -1.334466889176033e-06
1.8742159409556848e-06   -2.643850289697018e-07   -1.334466889176033e-06
1.8742159409556848e-06   -2.643850289697018e-07   -1.334466889176033e-06
2.24141398485899e-06   0.0   -2.93895416285085e-05
2.24141398485899e-06   0.0   -2.93895416285085e-05
2.24141398485899e-06   0.0   -2.93895416285085e-05
2.24141398485899e-06   0.0   -2.93895416285085e-05
-1.4088373301639347e-05   5.182170258767865e-07   -2.4841596998707714e-06
-1.4088373301639347e-05   5.182170258767865e-07   -2.4841596998707714e-06
-1.4088373301639347e-05   5.182170258767865e-07   -2.4841596998707714e-06
-1.4088373301639347e-05   5.182170258767865e-07   -2.4841596998707714e-06
-6.207880330916312e-06   -5.511567588628978e-07   -1.497669038023196e-05
-6.207880330916312e-06   -5.511567588628978e-07   -1.497669038023196e-05
-6.207880330916312e-06   -5.511567588628978e-07   -1.497669038023196e-05
-6.207880330916312e-06   -5.511567588628978e-07   -1.497669038023196e-05
-1.4088373301639347e-05   0.0   -2.9700471844034673e-05
-1.4088373301639347e-05   0.0   -2.9700471844034673e-05
-1.4088373301639347e-05   0.0   -2.9700471844034673e-05
-1.4088373301639347e-05   0.0   -2.9700471844034673e-05
2.2414139848589936e-06   5.182170258767865e-07   -2.1732294843446925e-06
2.2414139848589936e-06   5.182170258767865e-07   -2.1732294843446925e-06
2.2414139848589936e-06   5.182170258767865e-07   -2.1732294843446925e-06
2.2414139848589936e-06   5.182170258767865e-07   -2.1732294843446925e-06
2.532408428955234e-06   0.0   -2.93468107641017e-05
2.532408428955234e-06   0.0   -2.93468107641017e-05
2.532408428955234e-06   0.0   -2.93468107641017e-05
2.532408428955234e-06   0.0   -2.93468107641017e-05
-1.376527229999011e-05   1.2077304635288268e-06   -2.90864782731009e-06
-1.376527229999011e-05   1.2077304635288268e-06   -2.90864782731009e-06
-1.376527229999011e-05   1.2077304635288268e-06   -2.90864782731009e-06
-1.376527229999011e-05   1.2077304635288268e-06   -2.90864782731009e-06
-5.777982436342055e-06   2.947175666107695e-07   -1.5672989861906047e-05
-5.777982436342055e-06   2.947175666107695e-07   -1.5672989861906047e-05
-5.777982436342055e-06   2.947175666107695e-07   -1.5672989861906047e-05
-5.777982436342055e-06   2.947175666107695e-07   -1.5672989861906047e-05
-1.3765272299990134e-05   0.0   -3.0071449042219045e-05
-1.3765272299990134e-05   0.0   -3.0071449042219045e-05
-1.3765272299990134e-05   0.0   -3.0071449042219045e-05
-1.3765272299990134e-05   0.0   -3.0071449042219045e-05
2.532408428955238e-06   1.2077304635288268e-06   -2.184009549192801e-06
2.532408428955238e-06   1.2077304635288268e-06   -2.184009549192801e-06
2.532408428955238e-06   1.2077304635288268e-06   -2.184009549192801e-06
2.532408428955238e-06   1.2077304635288268e-06   -2.184009549192801e-06
2.9209831097360345e-06   0.0   -2.871403047404377e-05
2.9209831097360345e-06   0.0   -2.871403047404377e-05
2.9209831097360345e-06   0.0   -2.871403047404377e-05
2.9209831097360345e-06   0.0   -2.871403047404377e-05
-1.3469590650333921e-05   2.005832638369838e-06   -2.599907123615749e-06
-1.3469590650333921e-05   2.005832638369838e-06   -2.599907123615749e-06
-1.3469590650333921e-05   2.005832638369838e-06   -2.599907123615749e-06
-1.3469590650333921e-05   2.005832638369838e-06   -2.599907123615749e-06
-5.422144595127038e-06   1.1311821401460203e-06   -1.5487526916692918e-05
-5.422144595127038e-06   1.1311821401460203e-06   -1.5487526916692918e-05
-5.422144595127038e-06   1.1311821401460203e-06   -1.5487526916692918e-05
-5.422144595127038e-06   1.1311821401460203e-06   -1.5487526916692918e-05
1.874215940955688e-06   0.0   -2.888678453525494e-05
1.874215940955688e-06   0.0   -2.888678453525494e-05
1.874215940955688e-06   0.0   -2.888678453525494e-05
1.874215940955688e-06   0.0   -2.888678453525494e-05
1.9826375837327046e-05   -2.3254783560619984e-06   -3.6180505493985885e-07
1.9826375837327046e-05   -2.3254783560619984e-06   -3.6180505493985885e-07
1.9826375837327046e-05   -2.3254783560619984e-06   -3.6180505493985885e-07
1.9826375837327046e-05   -2.3254783560619984e-06   -3.6180505493985885e-07
1.9872527721588215e-05   0.0   -3.0439895491495804e-05
1.9872527721588215e-05   0.0   -3.0439895491495804e-05
1.9872527721588215e-05   0.0   -3.0439895491495804e-05
1.9872527721588215e-05   0.0   -3.0439895491495804e-05
2.2414139848589975e-06   -1.750589771645341e-06   -4.352067293244702e-09
2.2414139848589975e-06   -1.750589771645341e-06   -4.352067293244702e-09
2.2414139848589975e-06   -1.750589771645341e-06   -4.352067293244702e-09
2.2414139848589975e-06   -1.750589771645341e-06   -4.352067293244702e-09
1.0873371831271952e-05   -1.2942591302007208e-06   -1.4664746862848255e-05
1.0873371831271952e-05   -1.2942591302007208e-06   -1.4664746862848255e-05
1.0873371831271952e-05   -1.2942591302007208e-06   -1.4664746862848255e-05
1.0873371831271952e-05   -1.2942591302007208e-06   -1.4664746862848255e-05
2.2414139848589975e-06   0.0   -2.93895416285086e-05
2.2414139848589975e-06   0.0   -2.93895416285086e-05
2.2414139848589975e-06   0.0   -2.93895416285086e-05
2.2414139848589975e-06   0.0   -2.93895416285086e-05
1.9872527721588215e-05   -1.750589771645341e-06   -1.0547059302804454e-06
1.9872527721588215e-05   -1.750589771645341e-06   -1.0547059302804454e-06
1.9872527721588215e-05   -1.750589771645341e-06   -1.0547059302804454e-06
1.9872527721588215e-05   -1.750589771645341e-06   -1.0547059302804454e-06
1.979680761247026e-05   0.0   -3.000530334638342e-05
1.979680761247026e-05   0.0   -3.000530334638342e-05
1.979680761247026e-05   0.0   -3.000530334638342e-05
1.979680761247026e-05   0.0   -3.000530334638342e-05
2.532408428955238e-06   -1.0974876371361216e-06   -5.728121249100465e-07
2.532408428955238e-06   -1.0974876371361216e-06   -5.728121249100465e-07
2.532408428955238e-06   -1.0974876371361216e-06   -5.728121249100465e-07
2.532408428955238e-06   -1.0974876371361216e-06   -5.728121249100465e-07
1.101911079866463e-05   -5.131347648956845e-07   -1.5067927797769945e-05
1.101911079866463e-05   -5.131347648956845e-07   -1.5067927797769945e-05
1.101911079866463e-05   -5.131347648956845e-07   -1.5067927797769945e-05
1.101911079866463e-05   -5.131347648956845e-07   -1.5067927797769945e-05
2.532408428955236e-06   0.0   -2.9346810764101726e-05
2.532408428955236e-06   0.0   -2.9346810764101726e-05
2.532408428955236e-06   0.0   -2.9346810764101726e-05
2.532408428955236e-06   0.0   -2.9346810764101726e-05
1.979680761247026e-05   -1.0974876371361216e-06   -1.231304707191718e-06
1.979680761247026e-05   -1.0974876371361216e-06   -1.231304707191718e-06
1.979680761247026e-05   -1.0974876371361216e-06   -1.231304707191718e-06
1.979680761247026e-05   -1.0974876371361216e-06   -1.231304707191718e-06
2.0189235753830858e-05   0.0   -2.8846292355595236e-05
2.0189235753830858e-05   0.0   -2.8846292355595236e-05
2.0189235753830858e-05   0.0   -2.8846292355595236e-05
2.0189235753830858e-05   0.0   -2.8846292355595236e-05
2.9209831097360395e-06   -2.2043646925235704e-07   6.63905994475377e-08
2.9209831097360395e-06   -2.2043646925235704e-07   6.63905994475377e-08
2.9209831097360395e-06   -2.2043646925235704e-07   6.63905994475377e-08
2.9209831097360395e-06   -2.2043646925235704e-07   6.63905994475377e-08
1.136082209139304e-05   4.170986737554284e-07   -1.4382528789118787e-05
1.136082209139304e-05   4.170986737554284e-07   -1.4382528789118787e-05
1.136082209139304e-05   4.170986737554284e-07   -1.4382528789118787e-05
1.136082209139304e-05   4.170986737554284e-07   -1.4382528789118787e-05
1.9826375837327046e-05   0.0   -3.028207154889214e-05
1.9826375837327046e-05   0.0   -3.028207154889214e-05
1.9826375837327046e-05   0.0   -3.028207154889214e-05
1.9826375837327046e-05   0.0   -3.028207154889214e-05
4.481849261607031e-05   -5.902407897992142e-06   7.830011676884934e-06
4.481849261607031e-05   -5.902407897992142e-06   7.830011676884934e-06
4.481849261607031e-05   -5.902407897992142e-06   7.830011676884934e-06
4.481849261607031e-05   -5.902407897992142e-06   7.830011676884934e-06
4.210595204936156e-05   0.0   -3.3449648038125255e-05
4.210595204936156e-05   0.0   -3.3449648038125255e-05
4.210595204936156e-05   0.0   -3.3449648038125255e-05
4.210595204936156e-05   0.0   -3.3449648038125255e-05
1.9872527721588215e-05   -5.016254244382411e-06   6.615811721459759e-06
1.9872527721588215e-05   -5.016254244382411e-06   6.615811721459759e-06
1.9872527721588215e-05   -5.016254244382411e-06   6.615811721459759e-06
1.9872527721588215e-05   -5.016254244382411e-06   6.615811721459759e-06
3.09661639433443e-05   -2.6396470743609305e-06   -1.3299546283479921e-05
3.09661639433443e-05   -2.6396470743609305e-06   -1.3299546283479921e-05
3.09661639433443e-05   -2.6396470743609305e-06   -1.3299546283479921e-05
3.09661639433443e-05   -2.6396470743609305e-06   -1.3299546283479921e-05
1.9872527721588198e-05   0.0   -3.0439895491495776e-05
1.9872527721588198e-05   0.0   -3.0439895491495776e-05
1.9872527721588198e-05   0.0   -3.0439895491495776e-05
1.9872527721588198e-05   0.0   -3.0439895491495776e-05
4.210595204936141e-05   -5.0162542443823974e-06   3.6060591748302977e-06
4.210595204936141e-05   -5.0162542443823974e-06   3.6060591748302977e-06
4.210595204936141e-05   -5.0162542443823974e-06   3.6060591748302977e-06
4.210595204936141e-05   -5.0162542443823974e-06   3.6060591748302977e-06
4.0859332974513104e-05   0.0   -3.275431449443164e-05
4.0859332974513104e-05   0.0   -3.275431449443164e-05
4.0859332974513104e-05   0.0   -3.275431449443164e-05
4.0859332974513104e-05   0.0   -3.275431449443164e-05
1.979680761247026e-05   -4.5816852467470294e-06   5.098905590354642e-06
1.979680761247026e-05   -4.5816852467470294e-06   5.098905590354642e-06
1.979680761247026e-05   -4.5816852467470294e-06   5.098905590354642e-06
1.979680761247026e-05   -4.5816852467470294e-06   5.098905590354642e-06
3.0365930348050645e-05   -1.928682502446532e-06   -1.4108100615526294e-05
3.0365930348050645e-05   -1.928682502446532e-06   -1.4108100615526294e-05
3.0365930348050645e-05   -1.928682502446532e-06   -1.4108100615526294e-05
3.0365930348050645e-05   -1.928682502446532e-06   -1.4108100615526294e-05
1.979680761247026e-05   0.0   -3.000530334638342e-05
1.979680761247026e-05   0.0   -3.000530334638342e-05
1.979680761247026e-05   0.0   -3.000530334638342e-05
1.979680761247026e-05   0.0   -3.000530334638342e-05
4.085933297451296e-05   -4.581685246747023e-06   2.3498944423064083e-06
4.085933297451296e-05   -4.581685246747023e-06   2.3498944423064083e-06
4.085933297451296e-05   -4.581685246747023e-06   2.3498944423064083e-06
4.085933297451296e-05   -4.581685246747023e-06   2.3498944423064083e-06
3.89969040112629e-05   0.0   -3.097883096027856e-05
3.89969040112629e-05   0.0   -3.097883096027856e-05
3.89969040112629e-05   0.0   -3.097883096027856e-05
3.89969040112629e-05   0.0   -3.097883096027856e-05
2.0189235753830858e-05   -3.554231007805624e-06   2.499821406791615e-06
2.0189235753830858e-05   -3.554231007805624e-06   2.499821406791615e-06
2.0189235753830858e-05   -3.554231007805624e-06   2.499821406791615e-06
2.0189235753830858e-05   -3.554231007805624e-06   2.499821406791615e-06
2.9396855811866613e-05   -8.112730115793263e-07   -1.4491986821003751e-05
2.9396855811866613e-05   -8.112730115793263e-07   -1.4491986821003751e-05
2.9396855811866613e-05   -8.112730115793263e-07   -1.4491986821003751e-05
2.9396855811866613e-05   -8.112730115793263e-07   -1.4491986821003751e-05
-4.378051475921534e-05   5.5852600963774885e-06   -2.880669767061836e-05
-4.378051475921534e-05   5.5852600963774885e-06   -2.880669767061836e-05
-4.378051475921534e-05   5.5852600963774885e-06   -2.880669767061836e-05