<?xml version="1.0"?> 
<VTKFile type="UnstructuredGrid"> 
   <UnstructuredGrid> 
      <Piece NumberOfPoints="6000"  NumberOfCells="1500">  
          <Points>  
             <DataArray type="Float64" NumberOfComponents="3" format="ascii">   
-500.0   0.0   0.0
-450.0   0.0   0.0
-500.0   30.0   0.0
-500.0   0.0   16.666666666666668
-450.0   0.0   0.0
-450.0   30.0   0.0
-500.0   30.0   0.0
-450.0   30.0   16.666666666666668
-500.0   0.0   16.666666666666668
-500.0   30.0   16.666666666666668
-450.0   30.0   16.666666666666668
-500.0   30.0   0.0
-500.0   0.0   16.666666666666668
-450.0   30.0   16.666666666666668
-450.0   0.0   16.666666666666668
-450.0   0.0   0.0
-500.0   0.0   16.666666666666668
-450.0   30.0   16.666666666666668
-450.0   0.0   0.0
-500.0   30.0   0.0
-500.0   0.0   16.666666666666668
-450.0   0.0   16.666666666666668
-500.0   30.0   16.666666666666668
-500.0   0.0   33.333333333333336
-450.0   0.0   16.666666666666668
-450.0   30.0   16.666666666666668
-500.0   30.0   16.666666666666668
-450.0   30.0   33.333333333333336
-500.0   0.0   33.333333333333336
-500.0   30.0   33.333333333333336
-450.0   30.0   33.333333333333336
-500.0   30.0   16.666666666666668
-500.0   0.0   33.333333333333336
-450.0   30.0   33.333333333333336
-450.0   0.0   33.333333333333336
-450.0   0.0   16.666666666666668
-500.0   0.0   33.333333333333336
-450.0   30.0   33.333333333333336
-450.0   0.0   16.666666666666668
-500.0   30.0   16.666666666666668
-500.0   0.0   33.333333333333336
-450.0   0.0   33.333333333333336
-500.0   30.0   33.333333333333336
-500.0   0.0   50.0
-450.0   0.0   33.333333333333336
-450.0   30.0   33.333333333333336
-500.0   30.0   33.333333333333336
-450.0   30.0   50.0
-500.0   0.0   50.0
-500.0   30.0   50.0
-450.0   30.0   50.0
-500.0   30.0   33.333333333333336
-500.0   0.0   50.0
-450.0   30.0   50.0
-450.0   0.0   50.0
-450.0   0.0   33.333333333333336
-500.0   0.0   50.0
-450.0   30.0   50.0
-450.0   0.0   33.333333333333336
-500.0   30.0   33.333333333333336
-500.0   30.0   0.0
-450.0   30.0   0.0
-500.0   60.0   0.0
-500.0   30.0   16.666666666666668
-450.0   30.0   0.0
-450.0   60.0   0.0
-500.0   60.0   0.0
-450.0   60.0   16.666666666666668
-500.0   30.0   16.666666666666668
-500.0   60.0   16.666666666666668
-450.0   60.0   16.666666666666668
-500.0   60.0   0.0
-500.0   30.0   16.666666666666668
-450.0   60.0   16.666666666666668
-450.0   30.0   16.666666666666668
-450.0   30.0   0.0
-500.0   30.0   16.666666666666668
-450.0   60.0   16.666666666666668
-450.0   30.0   0.0
-500.0   60.0   0.0
-500.0   30.0   16.666666666666668
-450.0   30.0   16.666666666666668
-500.0   60.0   16.666666666666668
-500.0   30.0   33.333333333333336
-450.0   30.0   16.666666666666668
-450.0   60.0   16.666666666666668
-500.0   60.0   16.666666666666668
-450.0   60.0   33.333333333333336
-500.0   30.0   33.333333333333336
-500.0   60.0   33.333333333333336
-450.0   60.0   33.333333333333336
-500.0   60.0   16.666666666666668
-500.0   30.0   33.333333333333336
-450.0   60.0   33.333333333333336
-450.0   30.0   33.333333333333336
-450.0   30.0   16.666666666666668
-500.0   30.0   33.333333333333336
-450.0   60.0   33.333333333333336
-450.0   30.0   16.666666666666668
-500.0   60.0   16.666666666666668
-500.0   30.0   33.333333333333336
-450.0   30.0   33.333333333333336
-500.0   60.0   33.333333333333336
-500.0   30.0   50.0
-450.0   30.0   33.333333333333336
-450.0   60.0   33.333333333333336
-500.0   60.0   33.333333333333336
-450.0   60.0   50.0
-500.0   30.0   50.0
-500.0   60.0   50.0
-450.0   60.0   50.0
-500.0   60.0   33.333333333333336
-500.0   30.0   50.0
-450.0   60.0   50.0
-450.0   30.0   50.0
-450.0   30.0   33.333333333333336
-500.0   30.0   50.0
-450.0   60.0   50.0
-450.0   30.0   33.333333333333336
-500.0   60.0   33.333333333333336
-500.0   60.0   0.0
-450.0   60.0   0.0
-500.0   90.0   0.0
-500.0   60.0   16.666666666666668
-450.0   60.0   0.0
-450.0   90.0   0.0
-500.0   90.0   0.0
-450.0   90.0   16.666666666666668
-500.0   60.0   16.666666666666668
-500.0   90.0   16.666666666666668
-450.0   90.0   16.666666666666668
-500.0   90.0   0.0
-500.0   60.0   16.666666666666668
-450.0   90.0   16.666666666666668
-450.0   60.0   16.666666666666668
-450.0   60.0   0.0
-500.0   60.0   16.666666666666668
-450.0   90.0   16.666666666666668
-450.0   60.0   0.0
-500.0   90.0   0.0
-500.0   60.0   16.666666666666668
-450.0   60.0   16.666666666666668
-500.0   90.0   16.666666666666668
-500.0   60.0   33.333333333333336
-450.0   60.0   16.666666666666668
-450.0   90.0   16.666666666666668
-500.0   90.0   16.666666666666668
-450.0   90.0   33.333333333333336
-500.0   60.0   33.333333333333336
-500.0   90.0   33.333333333333336
-450.0   90.0   33.333333333333336
-500.0   90.0   16.666666666666668
-500.0   60.0   33.333333333333336
-450.0   90.0   33.333333333333336
-450.0   60.0   33.333333333333336
-450.0   60.0   16.666666666666668
-500.0   60.0   33.333333333333336
-450.0   90.0   33.333333333333336
-450.0   60.0   16.666666666666668
-500.0   90.0   16.666666666666668
-500.0   60.0   33.333333333333336
-450.0   60.0   33.333333333333336
-500.0   90.0   33.333333333333336
-500.0   60.0   50.0
-450.0   60.0   33.333333333333336
-450.0   90.0   33.333333333333336
-500.0   90.0   33.333333333333336
-450.0   90.0   50.0
-500.0   60.0   50.0
-500.0   90.0   50.0
-450.0   90.0   50.0
-500.0   90.0   33.333333333333336
-500.0   60.0   50.0
-450.0   90.0   50.0
-450.0   60.0   50.0
-450.0   60.0   33.333333333333336
-500.0   60.0   50.0
-450.0   90.0   50.0
-450.0   60.0   33.333333333333336
-500.0   90.0   33.333333333333336
-500.0   90.0   0.0
-450.0   90.0   0.0
-500.0   120.0   0.0
-500.0   90.0   16.666666666666668
-450.0   90.0   0.0
-450.0   120.0   0.0
-500.0   120.0   0.0
-450.0   120.0   16.666666666666668
-500.0   90.0   16.666666666666668
-500.0   120.0   16.666666666666668
-450.0   120.0   16.666666666666668
-500.0   120.0   0.0
-500.0   90.0   16.666666666666668
-450.0   120.0   16.666666666666668
-450.0   90.0   16.666666666666668
-450.0   90.0   0.0
-500.0   90.0   16.666666666666668
-450.0   120.0   16.666666666666668
-450.0   90.0   0.0
-500.0   120.0   0.0
-500.0   90.0   16.666666666666668
-450.0   90.0   16.666666666666668
-500.0   120.0   16.666666666666668
-500.0   90.0   33.333333333333336
-450.0   90.0   16.666666666666668
-450.0   120.0   16.666666666666668
-500.0   120.0   16.666666666666668
-450.0   120.0   33.333333333333336
-500.0   90.0   33.333333333333336
-500.0   120.0   33.333333333333336
-450.0   120.0   33.333333333333336
-500.0   120.0   16.666666666666668
-500.0   90.0   33.333333333333336
-450.0   120.0   33.333333333333336
-450.0   90.0   33.333333333333336
-450.0   90.0   16.666666666666668
-500.0   90.0   33.333333333333336
-450.0   120.0   33.333333333333336
-450.0   90.0   16.666666666666668
-500.0   120.0   16.666666666666668
-500.0   90.0   33.333333333333336
-450.0   90.0   33.333333333333336
-500.0   120.0   33.333333333333336
-500.0   90.0   50.0
-450.0   90.0   33.333333333333336
-450.0   120.0   33.333333333333336
-500.0   120.0   33.333333333333336
-450.0   120.0   50.0
-500.0   90.0   50.0
-500.0   120.0   50.0
-450.0   120.0   50.0
-500.0   120.0   33.333333333333336
-500.0   90.0   50.0
-450.0   120.0   50.0
-450.0   90.0   50.0
-450.0   90.0   33.333333333333336
-500.0   90.0   50.0
-450.0   120.0   50.0
-450.0   90.0   33.333333333333336
-500.0   120.0   33.333333333333336
-500.0   120.0   0.0
-450.0   120.0   0.0
-500.0   150.0   0.0
-500.0   120.0   16.666666666666668
-450.0   120.0   0.0
-450.0   150.0   0.0
-500.0   150.0   0.0
-450.0   150.0   16.666666666666668
-500.0   120.0   16.666666666666668
-500.0   150.0   16.666666666666668
-450.0   150.0   16.666666666666668
-500.0   150.0   0.0
-500.0   120.0   16.666666666666668
-450.0   150.0   16.666666666666668
-450.0   120.0   16.666666666666668
-450.0   120.0   0.0
-500.0   120.0   16.666666666666668
-450.0   150.0   16.666666666666668
-450.0   120.0   0.0
-500.0   150.0   0.0
-500.0   120.0   16.666666666666668
-450.0   120.0   16.666666666666668
-500.0   150.0   16.666666666666668
-500.0   120.0   33.333333333333336
-450.0   120.0   16.666666666666668
-450.0   150.0   16.666666666666668
-500.0   150.0   16.666666666666668
-450.0   150.0   33.333333333333336
-500.0   120.0   33.333333333333336
-500.0   150.0   33.333333333333336
-450.0   150.0   33.333333333333336
-500.0   150.0   16.666666666666668
-500.0   120.0   33.333333333333336
-450.0   150.0   33.333333333333336
-450.0   120.0   33.333333333333336
-450.0   120.0   16.666666666666668
-500.0   120.0   33.333333333333336
-450.0   150.0   33.333333333333336
-450.0   120.0   16.666666666666668
-500.0   150.0   16.666666666666668
-500.0   120.0   33.333333333333336
-450.0   120.0   33.333333333333336
-500.0   150.0   33.333333333333336
-500.0   120.0   50.0
-450.0   120.0   33.333333333333336
-450.0   150.0   33.333333333333336
-500.0   150.0   33.333333333333336
-450.0   150.0   50.0
-500.0   120.0   50.0
-500.0   150.0   50.0
-450.0   150.0   50.0
-500.0   150.0   33.333333333333336
-500.0   120.0   50.0
-450.0   150.0   50.0
-450.0   120.0   50.0
-450.0   120.0   33.333333333333336
-500.0   120.0   50.0
-450.0   150.0   50.0
-450.0   120.0   33.333333333333336
-500.0   150.0   33.333333333333336
-450.0   0.0   0.0
-400.0   0.0   0.0
-450.0   30.0   0.0
-450.0   0.0   16.666666666666668
-400.0   0.0   0.0
-400.0   30.0   0.0
-450.0   30.0   0.0
-400.0   30.0   16.666666666666668
-450.0   0.0   16.666666666666668
-450.0   30.0   16.666666666666668
-400.0   30.0   16.666666666666668
-450.0   30.0   0.0
-450.0   0.0   16.666666666666668
-400.0   30.0   16.666666666666668
-400.0   0.0   16.666666666666668
-400.0   0.0   0.0
-450.0   0.0   16.666666666666668
-400.0   30.0   16.666666666666668
-400.0   0.0   0.0
-450.0   30.0   0.0
-450.0   0.0   16.666666666666668
-400.0   0.0   16.666666666666668
-450.0   30.0   16.666666666666668
[...]
          <PointData>  
             <DataArray type="Float64" NumberOfComponents="3" Name="Strains" format="ascii">   
-8.811470777282439e-05   0.0   -5.784762011345222e-05
-8.811470777282439e-05   0.0   -5.784762011345222e-05
-8.811470777282439e-05   0.0   -5.784762011345222e-05
-8.811470777282439e-05   0.0   -5.784762011345222e-05
-5.606733686609892e-05   9.759060494663599e-06   1.4201010278882273e-06
-5.606733686609892e-05   9.759060494663599e-06   1.4201010278882273e-06
-5.606733686609892e-05   9.759060494663599e-06   1.4201010278882273e-06
-5.606733686609892e-05   9.759060494663599e-06   1.4201010278882273e-06
-5.495745030111012e-05   0.0   -5.459908309714103e-05
-5.495745030111012e-05   0.0   -5.459908309714103e-05
-5.495745030111012e-05   0.0   -5.459908309714103e-05
-5.495745030111012e-05   0.0   -5.459908309714103e-05
-9.221490587969012e-05   1.171249537274418e-05   4.691789768460509e-07
-9.221490587969012e-05   1.171249537274418e-05   4.691789768460509e-07
-9.221490587969012e-05   1.171249537274418e-05   4.691789768460509e-07
-9.221490587969012e-05   1.171249537274418e-05   4.691789768460509e-07
-7.153607903696713e-05   2.707114180259336e-06   -2.8592303712201357e-05
-7.153607903696713e-05   2.707114180259336e-06   -2.8592303712201357e-05
-7.153607903696713e-05   2.707114180259336e-06   -2.8592303712201357e-05
-7.153607903696713e-05   2.707114180259336e-06   -2.8592303712201357e-05
-9.221490587969028e-05   0.0   -6.162658032078755e-05
-9.221490587969028e-05   0.0   -6.162658032078755e-05
-9.221490587969028e-05   0.0   -6.162658032078755e-05
-9.221490587969028e-05   0.0   -6.162658032078755e-05
-5.495745030111012e-05   1.1712495372744207e-05   7.496676200492543e-06
-5.495745030111012e-05   1.1712495372744207e-05   7.496676200492543e-06
-5.495745030111012e-05   1.1712495372744207e-05   7.496676200492543e-06
-5.495745030111012e-05   1.1712495372744207e-05   7.496676200492543e-06
-5.5111298062354246e-05   0.0   -5.5935169433818835e-05
-5.5111298062354246e-05   0.0   -5.5935169433818835e-05
-5.5111298062354246e-05   0.0   -5.5935169433818835e-05
-5.5111298062354246e-05   0.0   -5.5935169433818835e-05
-9.509391057787824e-05   1.254847966888678e-05   3.173430290722654e-06
-9.509391057787824e-05   1.254847966888678e-05   3.173430290722654e-06
-9.509391057787824e-05   1.254847966888678e-05   3.173430290722654e-06
-9.509391057787824e-05   1.254847966888678e-05   3.173430290722654e-06
-7.366310197102214e-05   4.742842405807257e-06   -2.7861201696189776e-05
-7.366310197102214e-05   4.742842405807257e-06   -2.7861201696189776e-05
-7.366310197102214e-05   4.742842405807257e-06   -2.7861201696189776e-05
-7.366310197102214e-05   4.742842405807257e-06   -2.7861201696189776e-05
-9.50939105778784e-05   0.0   -6.346425723515092e-05
-9.50939105778784e-05   0.0   -6.346425723515092e-05
-9.50939105778784e-05   0.0   -6.346425723515092e-05
-9.50939105778784e-05   0.0   -6.346425723515092e-05
-5.5111298062354246e-05   1.2548479668886807e-05   1.0702518092054752e-05
-5.5111298062354246e-05   1.2548479668886807e-05   1.0702518092054752e-05
-5.5111298062354246e-05   1.2548479668886807e-05   1.0702518092054752e-05
-5.5111298062354246e-05   1.2548479668886807e-05   1.0702518092054752e-05
-5.508104302366174e-05   0.0   -5.627867041288856e-05
-5.508104302366174e-05   0.0   -5.627867041288856e-05
-5.508104302366174e-05   0.0   -5.627867041288856e-05
-5.508104302366174e-05   0.0   -5.627867041288856e-05
-0.00010129721312654297   1.4296246229895888e-05   1.2170532020642886e-05
-0.00010129721312654297   1.4296246229895888e-05   1.2170532020642886e-05
-0.00010129721312654297   1.4296246229895888e-05   1.2170532020642886e-05
-0.00010129721312654297   1.4296246229895888e-05   1.2170532020642886e-05
-7.508747680076995e-05   5.98798901855196e-06   -2.6527407528839124e-05
-7.508747680076995e-05   5.98798901855196e-06   -2.6527407528839124e-05
-7.508747680076995e-05   5.98798901855196e-06   -2.6527407528839124e-05
-7.508747680076995e-05   5.98798901855196e-06   -2.6527407528839124e-05
-5.606733686609902e-05   0.0   -5.199218381665406e-05
-5.606733686609902e-05   0.0   -5.199218381665406e-05
-5.606733686609902e-05   0.0   -5.199218381665406e-05
-5.606733686609902e-05   0.0   -5.199218381665406e-05
-2.553468900691689e-05   3.578784418787546e-06   1.0428332665886445e-06
-2.553468900691689e-05   3.578784418787546e-06   1.0428332665886445e-06
-2.553468900691689e-05   3.578784418787546e-06   1.0428332665886445e-06
-2.553468900691689e-05   3.578784418787546e-06   1.0428332665886445e-06
-2.4557789629965102e-05   0.0   -5.154156849151155e-05
-2.4557789629965102e-05   0.0   -5.154156849151155e-05
-2.4557789629965102e-05   0.0   -5.154156849151155e-05
-2.4557789629965102e-05   0.0   -5.154156849151155e-05
-5.495745030111012e-05   5.095857676049124e-06   -3.932981978565996e-06
-5.495745030111012e-05   5.095857676049124e-06   -3.932981978565996e-06
-5.495745030111012e-05   5.095857676049124e-06   -3.932981978565996e-06
-5.495745030111012e-05   5.095857676049124e-06   -3.932981978565996e-06
-4.031256324803199e-05   3.755127709520917e-07   -2.5508920123971143e-05
-4.031256324803199e-05   3.755127709520917e-07   -2.5508920123971143e-05
-4.031256324803199e-05   3.755127709520917e-07   -2.5508920123971143e-05
-4.031256324803199e-05   3.755127709520917e-07   -2.5508920123971143e-05
-5.4957450301110076e-05   0.0   -5.459908309714098e-05
-5.4957450301110076e-05   0.0   -5.459908309714098e-05
-5.4957450301110076e-05   0.0   -5.459908309714098e-05
-5.4957450301110076e-05   0.0   -5.459908309714098e-05
-2.4557789629965102e-05   5.095857676049124e-06   -8.754673729365162e-07
-2.4557789629965102e-05   5.095857676049124e-06   -8.754673729365162e-07
-2.4557789629965102e-05   5.095857676049124e-06   -8.754673729365162e-07
-2.4557789629965102e-05   5.095857676049124e-06   -8.754673729365162e-07
-2.400866605139391e-05   0.0   -5.2188318065791406e-05
-2.400866605139391e-05   0.0   -5.2188318065791406e-05
-2.400866605139391e-05   0.0   -5.2188318065791406e-05
-2.400866605139391e-05   0.0   -5.2188318065791406e-05
-5.5111298062354246e-05   6.244752280045701e-06   -4.097449415551606e-06
-5.5111298062354246e-05   6.244752280045701e-06   -4.097449415551606e-06
-5.5111298062354246e-05   6.244752280045701e-06   -4.097449415551606e-06
-5.5111298062354246e-05   6.244752280045701e-06   -4.097449415551606e-06
-3.948305817625194e-05   2.008970859458011e-06   -2.760304704003595e-05
-3.948305817625194e-05   2.008970859458011e-06   -2.760304704003595e-05
-3.948305817625194e-05   2.008970859458011e-06   -2.760304704003595e-05
-3.948305817625194e-05   2.008970859458011e-06   -2.760304704003595e-05
-5.5111298062354246e-05   0.0   -5.5935169433818835e-05
-5.5111298062354246e-05   0.0   -5.5935169433818835e-05
-5.5111298062354246e-05   0.0   -5.5935169433818835e-05
-5.5111298062354246e-05   0.0   -5.5935169433818835e-05
-2.400866605139391e-05   6.244752280045701e-06   -3.505980475241769e-07
-2.400866605139391e-05   6.244752280045701e-06   -3.505980475241769e-07
-2.400866605139391e-05   6.244752280045701e-06   -3.505980475241769e-07
-2.400866605139391e-05   6.244752280045701e-06   -3.505980475241769e-07
-2.3508457373625175e-05   0.0   -5.191860902473493e-05
-2.3508457373625175e-05   0.0   -5.191860902473493e-05
-2.3508457373625175e-05   0.0   -5.191860902473493e-05
-2.3508457373625175e-05   0.0   -5.191860902473493e-05
-5.508104302366159e-05   7.266768980255958e-06   -3.657694329494286e-06
-5.508104302366159e-05   7.266768980255958e-06   -3.657694329494286e-06
-5.508104302366159e-05   7.266768980255958e-06   -3.657694329494286e-06
-5.508104302366159e-05   7.266768980255958e-06   -3.657694329494286e-06
-3.93098777179897e-05   3.3471336742365497e-06   -2.7591188655335996e-05
-3.93098777179897e-05   3.3471336742365497e-06   -2.7591188655335996e-05
-3.93098777179897e-05   3.3471336742365497e-06   -2.7591188655335996e-05
-3.93098777179897e-05   3.3471336742365497e-06   -2.7591188655335996e-05
-2.5534689006916933e-05   0.0   -4.984491316538153e-05
-2.5534689006916933e-05   0.0   -4.984491316538153e-05
-2.5534689006916933e-05   0.0   -4.984491316538153e-05
-2.5534689006916933e-05   0.0   -4.984491316538153e-05
3.3119515204487052e-06   -4.5883749773846505e-07   -2.042481451748502e-06
3.3119515204487052e-06   -4.5883749773846505e-07   -2.042481451748502e-06
3.3119515204487052e-06   -4.5883749773846505e-07   -2.042481451748502e-06
3.3119515204487052e-06   -4.5883749773846505e-07   -2.042481451748502e-06
3.936034150392037e-06   0.0   -5.0999424514456476e-05
3.936034150392037e-06   0.0   -5.0999424514456476e-05
3.936034150392037e-06   0.0   -5.0999424514456476e-05
3.936034150392037e-06   0.0   -5.0999424514456476e-05
-2.4557789629965102e-05   9.035732950914951e-07   -4.051862190916304e-06
-2.4557789629965102e-05   9.035732950914951e-07   -4.051862190916304e-06
-2.4557789629965102e-05   9.035732950914951e-07   -4.051862190916304e-06
-2.4557789629965102e-05   9.035732950914951e-07   -4.051862190916304e-06
-1.0799327428262424e-05   -9.620927908959338e-07   -2.5863232875494875e-05
-1.0799327428262424e-05   -9.620927908959338e-07   -2.5863232875494875e-05
-1.0799327428262424e-05   -9.620927908959338e-07   -2.5863232875494875e-05
-1.0799327428262424e-05   -9.620927908959338e-07   -2.5863232875494875e-05
-2.4557789629965102e-05   0.0   -5.154156849151155e-05
-2.4557789629965102e-05   0.0   -5.154156849151155e-05
-2.4557789629965102e-05   0.0   -5.154156849151155e-05
-2.4557789629965102e-05   0.0   -5.154156849151155e-05
3.936034150392044e-06   9.035732950914816e-07   -3.509718213861399e-06
3.936034150392044e-06   9.035732950914816e-07   -3.509718213861399e-06
3.936034150392044e-06   9.035732950914816e-07   -3.509718213861399e-06
3.936034150392044e-06   9.035732950914816e-07   -3.509718213861399e-06
4.428750660908347e-06   0.0   -5.092637444946526e-05
4.428750660908347e-06   0.0   -5.092637444946526e-05
4.428750660908347e-06   0.0   -5.092637444946526e-05
4.428750660908347e-06   0.0   -5.092637444946526e-05
-2.400866605139387e-05   2.10323936054342e-06   -4.792623545287626e-06
-2.400866605139387e-05   2.10323936054342e-06   -4.792623545287626e-06
-2.400866605139387e-05   2.10323936054342e-06   -4.792623545287626e-06
-2.400866605139387e-05   2.10323936054342e-06   -4.792623545287626e-06
-1.0064519484528374e-05   5.12661701705166e-07   -2.707852122809389e-05
-1.0064519484528374e-05   5.12661701705166e-07   -2.707852122809389e-05
-1.0064519484528374e-05   5.12661701705166e-07   -2.707852122809389e-05
-1.0064519484528374e-05   5.12661701705166e-07   -2.707852122809389e-05
-2.400866605139391e-05   0.0   -5.2188318065791406e-05
-2.400866605139391e-05   0.0   -5.2188318065791406e-05
-2.400866605139391e-05   0.0   -5.2188318065791406e-05
-2.400866605139391e-05   0.0   -5.2188318065791406e-05
4.428750660908355e-06   2.1032393605434336e-06   -3.530679928961588e-06
4.428750660908355e-06   2.1032393605434336e-06   -3.530679928961588e-06
4.428750660908355e-06   2.1032393605434336e-06   -3.530679928961588e-06
4.428750660908355e-06   2.1032393605434336e-06   -3.530679928961588e-06
5.091323994772672e-06   0.0   -4.982299471603038e-05
5.091323994772672e-06   0.0   -4.982299471603038e-05
5.091323994772672e-06   0.0   -4.982299471603038e-05
5.091323994772672e-06   0.0   -4.982299471603038e-05
-2.3508457373625155e-05   3.4926905145075114e-06   -4.25230674407184e-06
-2.3508457373625155e-05   3.4926905145075114e-06   -4.25230674407184e-06
-2.3508457373625155e-05   3.4926905145075114e-06   -4.25230674407184e-06
-2.3508457373625155e-05   3.4926905145075114e-06   -4.25230674407184e-06
-9.458671028310598e-06   1.971102791467448e-06   -2.675566468577205e-05
-9.458671028310598e-06   1.971102791467448e-06   -2.675566468577205e-05
-9.458671028310598e-06   1.971102791467448e-06   -2.675566468577205e-05
-9.458671028310598e-06   1.971102791467448e-06   -2.675566468577205e-05
3.3119515204487107e-06   0.0   -5.012021566402462e-05
3.3119515204487107e-06   0.0   -5.012021566402462e-05
3.3119515204487107e-06   0.0   -5.012021566402462e-05
3.3119515204487107e-06   0.0   -5.012021566402462e-05
3.462551490354584e-05   -4.0612252474054585e-06   -3.6767850730598213e-07
3.462551490354584e-05   -4.0612252474054585e-06   -3.6767850730598213e-07
3.462551490354584e-05   -4.0612252474054585e-06   -3.6767850730598213e-07
3.462551490354584e-05   -4.0612252474054585e-06   -3.6767850730598213e-07
3.4687990267984335e-05   0.0   -5.2836207224239125e-05
3.4687990267984335e-05   0.0   -5.2836207224239125e-05
3.4687990267984335e-05   0.0   -5.2836207224239125e-05
3.4687990267984335e-05   0.0   -5.2836207224239125e-05
3.9360341503920506e-06   -3.0613045163041167e-06   2.538356815304732e-07
3.9360341503920506e-06   -3.0613045163041167e-06   2.538356815304732e-07
3.9360341503920506e-06   -3.0613045163041167e-06   2.538356815304732e-07
3.9360341503920506e-06   -3.0613045163041167e-06   2.538356815304732e-07
1.8999970894216524e-05   -2.263326300178753e-06   -2.5331512487852172e-05
1.8999970894216524e-05   -2.263326300178753e-06   -2.5331512487852172e-05
1.8999970894216524e-05   -2.263326300178753e-06   -2.5331512487852172e-05
1.8999970894216524e-05   -2.263326300178753e-06   -2.5331512487852172e-05
3.9360341503920506e-06   0.0   -5.099942451445665e-05
3.9360341503920506e-06   0.0   -5.099942451445665e-05
3.9360341503920506e-06   0.0   -5.099942451445665e-05
3.9360341503920506e-06   0.0   -5.099942451445665e-05
3.4687990267984335e-05   -3.0613045163041167e-06   -1.5829470282520012e-06
3.4687990267984335e-05   -3.0613045163041167e-06   -1.5829470282520012e-06
3.4687990267984335e-05   -3.0613045163041167e-06   -1.5829470282520012e-06
3.4687990267984335e-05   -3.0613045163041167e-06   -1.5829470282520012e-06
3.45402068699766e-05   0.0   -5.208173262048737e-05
3.45402068699766e-05   0.0   -5.208173262048737e-05
3.45402068699766e-05   0.0   -5.208173262048737e-05
3.45402068699766e-05   0.0   -5.208173262048737e-05
4.428750660908355e-06   -1.9255969517033663e-06   -7.40614101018287e-07
4.428750660908355e-06   -1.9255969517033663e-06   -7.40614101018287e-07
4.428750660908355e-06   -1.9255969517033663e-06   -7.40614101018287e-07
4.428750660908355e-06   -1.9255969517033663e-06   -7.40614101018287e-07
1.9238120510184325e-05   -9.019234216922647e-07   -2.603710130115154e-05
1.9238120510184325e-05   -9.019234216922647e-07   -2.603710130115154e-05
1.9238120510184325e-05   -9.019234216922647e-07   -2.603710130115154e-05
1.9238120510184325e-05   -9.019234216922647e-07   -2.603710130115154e-05
4.428750660908351e-06   0.0   -5.092637444946531e-05
4.428750660908351e-06   0.0   -5.092637444946531e-05
4.428750660908351e-06   0.0   -5.092637444946531e-05
4.428750660908351e-06   0.0   -5.092637444946531e-05
3.45402068699766e-05   -1.9255969517033663e-06   -1.8959722720403115e-06
3.45402068699766e-05   -1.9255969517033663e-06   -1.8959722720403115e-06
3.45402068699766e-05   -1.9255969517033663e-06   -1.8959722720403115e-06
3.45402068699766e-05   -1.9255969517033663e-06   -1.8959722720403115e-06
3.520989644507298e-05   0.0   -5.006269898399645e-05
3.520989644507298e-05   0.0   -5.006269898399645e-05
3.520989644507298e-05   0.0   -5.006269898399645e-05
3.520989644507298e-05   0.0   -5.006269898399645e-05
5.091323994772681e-06   -3.9950711327664437e-07   3.7462603447002533e-07
5.091323994772681e-06   -3.9950711327664437e-07   3.7462603447002533e-07
5.091323994772681e-06   -3.9950711327664437e-07   3.7462603447002533e-07
5.091323994772681e-06   -3.9950711327664437e-07   3.7462603447002533e-07
1.981932355299065e-05   7.197295545574158e-07   -2.484358189659368e-05
1.981932355299065e-05   7.197295545574158e-07   -2.484358189659368e-05
1.981932355299065e-05   7.197295545574158e-07   -2.484358189659368e-05
1.981932355299065e-05   7.197295545574158e-07   -2.484358189659368e-05
3.462551490354584e-05   0.0   -5.25569508124679e-05
3.462551490354584e-05   0.0   -5.25569508124679e-05
3.462551490354584e-05   0.0   -5.25569508124679e-05
3.462551490354584e-05   0.0   -5.25569508124679e-05
7.81768313968621e-05   -1.0295796335177266e-05   1.385109887528662e-05
7.81768313968621e-05   -1.0295796335177266e-05   1.385109887528662e-05
7.81768313968621e-05   -1.0295796335177266e-05   1.385109887528662e-05
7.81768313968621e-05   -1.0295796335177266e-05   1.385109887528662e-05
7.342183676005232e-05   0.0   -5.809197091334262e-05
7.342183676005232e-05   0.0   -5.809197091334262e-05
7.342183676005232e-05   0.0   -5.809197091334262e-05
7.342183676005232e-05   0.0   -5.809197091334262e-05
3.4687990267984335e-05   -8.75960614850582e-06   1.1720203595874172e-05
3.4687990267984335e-05   -8.75960614850582e-06   1.1720203595874172e-05
3.4687990267984335e-05   -8.75960614850582e-06   1.1720203595874172e-05
3.4687990267984335e-05   -8.75960614850582e-06   1.1720203595874172e-05
5.402367583179908e-05   -4.612516750728941e-06   -2.2994192649149838e-05
5.402367583179908e-05   -4.612516750728941e-06   -2.2994192649149838e-05
5.402367583179908e-05   -4.612516750728941e-06   -2.2994192649149838e-05
5.402367583179908e-05   -4.612516750728941e-06   -2.2994192649149838e-05
3.46879902679843e-05   0.0   -5.283620722423908e-05
3.46879902679843e-05   0.0   -5.283620722423908e-05
3.46879902679843e-05   0.0   -5.283620722423908e-05
3.46879902679843e-05   0.0   -5.283620722423908e-05
7.342183676005206e-05   -8.759606148505794e-06   6.464439906770649e-06
7.342183676005206e-05   -8.759606148505794e-06   6.464439906770649e-06
7.342183676005206e-05   -8.759606148505794e-06   6.464439906770649e-06
7.342183676005206e-05   -8.759606148505794e-06   6.464439906770649e-06
7.122947103040528e-05   0.0   -5.688421559955446e-05
7.122947103040528e-05   0.0   -5.688421559955446e-05
7.122947103040528e-05   0.0   -5.688421559955446e-05
7.122947103040528e-05   0.0   -5.688421559955446e-05
3.45402068699766e-05   -8.004138298445138e-06   9.067040980227065e-06
3.45402068699766e-05   -8.004138298445138e-06   9.067040980227065e-06
3.45402068699766e-05   -8.004138298445138e-06   9.067040980227065e-06
3.45402068699766e-05   -8.004138298445138e-06   9.067040980227065e-06
5.295873064919477e-05   -3.373340312762782e-06   -2.4408977443212632e-05
5.295873064919477e-05   -3.373340312762782e-06   -2.4408977443212632e-05
5.295873064919477e-05   -3.373340312762782e-06   -2.4408977443212632e-05
5.295873064919477e-05   -3.373340312762782e-06   -2.4408977443212632e-05
3.45402068699766e-05   0.0   -5.208173262048737e-05
3.45402068699766e-05   0.0   -5.208173262048737e-05
3.45402068699766e-05   0.0   -5.208173262048737e-05
3.45402068699766e-05   0.0   -5.208173262048737e-05
7.122947103040502e-05   -8.004138298445124e-06   4.264558001159966e-06
7.122947103040502e-05   -8.004138298445124e-06   4.264558001159966e-06
7.122947103040502e-05   -8.004138298445124e-06   4.264558001159966e-06
7.122947103040502e-05   -8.004138298445124e-06   4.264558001159966e-06
6.796510978900908e-05   0.0   -5.379496724955629e-05
6.796510978900908e-05   0.0   -5.379496724955629e-05
6.796510978900908e-05   0.0   -5.379496724955629e-05
6.796510978900908e-05   0.0   -5.379496724955629e-05
3.520989644507298e-05   -6.2204471092665395e-06   4.529323255897219e-06
3.520989644507298e-05   -6.2204471092665395e-06   4.529323255897219e-06
3.520989644507298e-05   -6.2204471092665395e-06   4.529323255897219e-06
3.520989644507298e-05   -6.2204471092665395e-06   4.529323255897219e-06
5.125265832949289e-05   -1.4276955242241776e-06   -2.5084264169161364e-05
5.125265832949289e-05   -1.4276955242241776e-06   -2.5084264169161364e-05
5.125265832949289e-05   -1.4276955242241776e-06   -2.5084264169161364e-05
5.125265832949289e-05   -1.4276955242241776e-06   -2.5084264169161364e-05
-7.643886827158133e-05   9.759060494663572e-06   -5.0165597483216465e-05
-7.643886827158133e-05   9.759060494663572e-06   -5.0165597483216465e-05
-7.643886827158133e-05   9.759060494663572e-06   -5.0165597483216465e-05
-7.643886827158133e-05   9.759060494663572e-06   -5.0165597483216465e-05
-4.895965501675571e-05   8.77535871754171e-06   -4.957129791446837e-06