<?xml version="1.0"?> 
<VTKFile type="UnstructuredGrid"> 
   <UnstructuredGrid> 
      <Piece NumberOfPoints="6000"  NumberOfCells="1500">  
          <Points>  
             <DataArray type="Float64" NumberOfComponents="3" format="ascii">   
-500.0   0.0   0.0
-450.0   0.0   0.0
-500.0   30.0   0.0
-500.0   0.0   16.666666666666668
-450.0   0.0   0.0
-450.0   30.0   0.0
-500.0   30.0   0.0
-450.0   30.0   16.666666666666668
-500.0   0.0   16.666666666666668
-500.0   30.0   16.666666666666668
-450.0   30.0   16.666666666666668
-500.0   30.0   0.0
-500.0   0.0   16.666666666666668
-450.0   30.0   16.666666666666668
-450.0   0.0   16.666666666666668
-450.0   0.0   0.0
-500.0   0.0   16.666666666666668
-450.0   30.0   16.666666666666668
-450.0   0.0   0.0
-500.0   30.0   0.0
-500.0   0.0   16.666666666666668
-450.0   0.0   16.666666666666668
-500.0   30.0   16.666666666666668
-500.0   0.0   33.333333333333336
-450.0   0.0   16.666666666666668
-450.0   30.0   16.666666666666668
-500.0   30.0   16.666666666666668
-450.0   30.0   33.333333333333336
-500.0   0.0   33.333333333333336
-500.0   30.0   33.333333333333336
-450.0   30.0   33.333333333333336
-500.0   30.0   16.666666666666668
-500.0   0.0   33.333333333333336
-450.0   30.0   33.333333333333336
-450.0   0.0   33.333333333333336
-450.0   0.0   16.666666666666668
-500.0   0.0   33.333333333333336
-450.0   30.0   33.333333333333336
-450.0   0.0   16.666666666666668
-500.0   30.0   16.666666666666668
-500.0   0.0   33.333333333333336
-450.0   0.0   33.333333333333336
-500.0   30.0   33.333333333333336
-500.0   0.0   50.0
-450.0   0.0   33.333333333333336
-450.0   30.0   33.333333333333336
-500.0   30.0   33.333333333333336
-450.0   30.0   50.0
-500.0   0.0   50.0
-500.0   30.0   50.0
-450.0   30.0   50.0
-500.0   30.0   33.333333333333336
-500.0   0.0   50.0
-450.0   30.0   50.0
-450.0   0.0   50.0
-450.0   0.0   33.333333333333336
-500.0   0.0   50.0
-450.0   30.0   50.0
-450.0   0.0   33.333333333333336
-500.0   30.0   33.333333333333336
-500.0   30.0   0.0
-450.0   30.0   0.0
-500.0   60.0   0.0
-500.0   30.0   16.666666666666668
-450.0   30.0   0.0
-450.0   60.0   0.0
-500.0   60.0   0.0
-450.0   60.0   16.666666666666668
-500.0   30.0   16.666666666666668
-500.0   60.0   16.666666666666668
-450.0   60.0   16.666666666666668
-500.0   60.0   0.0
-500.0   30.0   16.666666666666668
-450.0   60.0   16.666666666666668
-450.0   30.0   16.666666666666668
-450.0   30.0   0.0
-500.0   30.0   16.666666666666668
-450.0   60.0   16.666666666666668
-450.0   30.0   0.0
-500.0   60.0   0.0
-500.0   30.0   16.666666666666668
-450.0   30.0   16.666666666666668
-500.0   60.0   16.666666666666668
-500.0   30.0   33.333333333333336
-450.0   30.0   16.666666666666668
-450.0   60.0   16.666666666666668
-500.0   60.0   16.666666666666668
-450.0   60.0   33.333333333333336
-500.0   30.0   33.333333333333336
-500.0   60.0   33.333333333333336
-450.0   60.0   33.333333333333336
-500.0   60.0   16.666666666666668
-500.0   30.0   33.333333333333336
-450.0   60.0   33.333333333333336
-450.0   30.0   33.333333333333336
-450.0   30.0   16.666666666666668
-500.0   30.0   33.333333333333336
-450.0   60.0   33.333333333333336
-450.0   30.0   16.666666666666668
-500.0   60.0   16.666666666666668
-500.0   30.0   33.333333333333336
-450.0   30.0   33.333333333333336
-500.0   60.0   33.333333333333336
-500.0   30.0   50.0
-450.0   30.0   33.333333333333336
-450.0   60.0   33.333333333333336
-500.0   60.0   33.333333333333336
-450.0   60.0   50.0
-500.0   30.0   50.0
-500.0   60.0   50.0
-450.0   60.0   50.0
-500.0   60.0   33.333333333333336
-500.0   30.0   50.0
-450.0   60.0   50.0
-450.0   30.0   50.0
-450.0   30.0   33.333333333333336
-500.0   30.0   50.0
-450.0   60.0   50.0
-450.0   30.0   33.333333333333336
-500.0   60.0   33.333333333333336
-500.0   60.0   0.0
-450.0   60.0   0.0
-500.0   90.0   0.0
-500.0   60.0   16.666666666666668
-450.0   60.0   0.0
-450.0   90.0   0.0
-500.0   90.0   0.0
-450.0   90.0   16.666666666666668
-500.0   60.0   16.666666666666668
-500.0   90.0   16.666666666666668
-450.0   90.0   16.666666666666668
-500.0   90.0   0.0
-500.0   60.0   16.666666666666668
-450.0   90.0   16.666666666666668
-450.0   60.0   16.666666666666668
-450.0   60.0   0.0
-500.0   60.0   16.666666666666668
-450.0   90.0   16.666666666666668
-450.0   60.0   0.0
-500.0   90.0   0.0
-500.0   60.0   16.666666666666668
-450.0   60.0   16.666666666666668
-500.0   90.0   16.666666666666668
-500.0   60.0   33.333333333333336
-450.0   60.0   16.666666666666668
-450.0   90.0   16.666666666666668
-500.0   90.0   16.666666666666668
-450.0   90.0   33.333333333333336
-500.0   60.0   33.333333333333336
-500.0   90.0   33.333333333333336
-450.0   90.0   33.333333333333336
-500.0   90.0   16.666666666666668
-500.0   60.0   33.333333333333336
-450.0   90.0   33.333333333333336
-450.0   60.0   33.333333333333336
-450.0   60.0   16.666666666666668
-500.0   60.0   33.333333333333336
-450.0   90.0   33.333333333333336
-450.0   60.0   16.666666666666668
-500.0   90.0   16.666666666666668
-500.0   60.0   33.333333333333336
-450.0   60.0   33.333333333333336
-500.0   90.0   33.333333333333336
-500.0   60.0   50.0
-450.0   60.0   33.333333333333336
-450.0   90.0   33.333333333333336
-500.0   90.0   33.333333333333336
-450.0   90.0   50.0
-500.0   60.0   50.0
-500.0   90.0   50.0
-450.0   90.0   50.0
-500.0   90.0   33.333333333333336
-500.0   60.0   50.0
-450.0   90.0   50.0
-450.0   60.0   50.0
-450.0   60.0   33.333333333333336
-500.0   60.0   50.0
-450.0   90.0   50.0
-450.0   60.0   33.333333333333336
-500.0   90.0   33.333333333333336
-500.0   90.0   0.0
-450.0   90.0   0.0
-500.0   120.0   0.0
-500.0   90.0   16.666666666666668
-450.0   90.0   0.0
-450.0   120.0   0.0
-500.0   120.0   0.0
-450.0   120.0   16.666666666666668
-500.0   90.0   16.666666666666668
-500.0   120.0   16.666666666666668
-450.0   120.0   16.666666666666668
-500.0   120.0   0.0
-500.0   90.0   16.666666666666668
-450.0   120.0   16.666666666666668
-450.0   90.0   16.666666666666668
-450.0   90.0   0.0
-500.0   90.0   16.666666666666668
-450.0   120.0   16.666666666666668
-450.0   90.0   0.0
-500.0   120.0   0.0
-500.0   90.0   16.666666666666668
-450.0   90.0   16.666666666666668
-500.0   120.0   16.666666666666668
-500.0   90.0   33.333333333333336
-450.0   90.0   16.666666666666668
-450.0   120.0   16.666666666666668
-500.0   120.0   16.666666666666668
-450.0   120.0   33.333333333333336
-500.0   90.0   33.333333333333336
-500.0   120.0   33.333333333333336
-450.0   120.0   33.333333333333336
-500.0   120.0   16.666666666666668
-500.0   90.0   33.333333333333336
-450.0   120.0   33.333333333333336
-450.0   90.0   33.333333333333336
-450.0   90.0   16.666666666666668
-500.0   90.0   33.333333333333336
-450.0   120.0   33.333333333333336
-450.0   90.0   16.666666666666668
-500.0   120.0   16.666666666666668
-500.0   90.0   33.333333333333336
-450.0   90.0   33.333333333333336
-500.0   120.0   33.333333333333336
-500.0   90.0   50.0
-450.0   90.0   33.333333333333336
-450.0   120.0   33.333333333333336
-500.0   120.0   33.333333333333336
-450.0   120.0   50.0
-500.0   90.0   50.0
-500.0   120.0   50.0
-450.0   120.0   50.0
-500.0   120.0   33.333333333333336
-500.0   90.0   50.0
-450.0   120.0   50.0
-450.0   90.0   50.0
-450.0   90.0   33.333333333333336
-500.0   90.0   50.0
-450.0   120.0   50.0
-450.0   90.0   33.333333333333336
-500.0   120.0   33.333333333333336
-500.0   120.0   0.0
-450.0   120.0   0.0
-500.0   150.0   0.0
-500.0   120.0   16.666666666666668
-450.0   120.0   0.0
-450.0   150.0   0.0
-500.0   150.0   0.0
-450.0   150.0   16.666666666666668
-500.0   120.0   16.666666666666668
-500.0   150.0   16.666666666666668
-450.0   150.0   16.666666666666668
-500.0   150.0   0.0
-500.0   120.0   16.666666666666668
-450.0   150.0   16.666666666666668
-450.0   120.0   16.666666666666668
-450.0   120.0   0.0
-500.0   120.0   16.666666666666668
-450.0   150.0   16.666666666666668
-450.0   120.0   0.0
-500.0   150.0   0.0
-500.0   120.0   16.666666666666668
-450.0   120.0   16.666666666666668
-500.0   150.0   16.666666666666668
-500.0   120.0   33.333333333333336
-450.0   120.0   16.666666666666668
-450.0   150.0   16.666666666666668
-500.0   150.0   16.666666666666668
-450.0   150.0   33.333333333333336
-500.0   120.0   33.333333333333336
-500.0   150.0   33.333333333333336
-450.0   150.0   33.333333333333336
-500.0   150.0   16.666666666666668
-500.0   120.0   33.333333333333336
-450.0   150.0   33.333333333333336
-450.0   120.0   33.333333333333336
-450.0   120.0   16.666666666666668
-500.0   120.0   33.333333333333336
-450.0   150.0   33.333333333333336
-450.0   120.0   16.666666666666668
-500.0   150.0   16.666666666666668
-500.0   120.0   33.333333333333336
-450.0   120.0   33.333333333333336
-500.0   150.0   33.333333333333336
-500.0   120.0   50.0
-450.0   120.0   33.333333333333336
-450.0   150.0   33.333333333333336
-500.0   150.0   33.333333333333336
-450.0   150.0   50.0
-500.0   120.0   50.0
-500.0   150.0   50.0
-450.0   150.0   50.0
-500.0   150.0   33.333333333333336
-500.0   120.0   50.0
-450.0   150.0   50.0
-450.0   120.0   50.0
-450.0   120.0   33.333333333333336
-500.0   120.0   50.0
-450.0   150.0   50.0
-450.0   120.0   33.333333333333336
-500.0   150.0   33.333333333333336
-450.0   0.0   0.0
-400.0   0.0   0.0
-450.0   30.0   0.0
-450.0   0.0   16.666666666666668
-400.0   0.0   0.0
-400.0   30.0   0.0
-450.0   30.0   0.0
-400.0   30.0   16.666666666666668
-450.0   0.0   16.666666666666668
-450.0   30.0   16.666666666666668
-400.0   30.0   16.666666666666668
-450.0   30.0   0.0
-450.0   0.0   16.666666666666668
-400.0   30.0   16.666666666666668
-400.0   0.0   16.666666666666668
-400.0   0.0   0.0
-450.0   0.0   16.666666666666668
-400.0   30.0   16.666666666666668
-400.0   0.0   0.0
-450.0   30.0   0.0
-450.0   0.0   16.666666666666668
-400.0   0.0   16.666666666666668
-450.0   30.0   16.666666666666668
[...]
          <PointData>  
             <DataArray type="Float64" NumberOfComponents="3" Name="Strains" format="ascii">   
-2.55287586385712e-05   0.0   -1.694577054644467e-05
-2.55287586385712e-05   0.0   -1.694577054644467e-05
-2.55287586385712e-05   0.0   -1.694577054644467e-05
-2.55287586385712e-05   0.0   -1.694577054644467e-05
-1.6225530274966395e-05   2.802726497520069e-06   2.41245958075355e-07
-1.6225530274966395e-05   2.802726497520069e-06   2.41245958075355e-07
-1.6225530274966395e-05   2.802726497520069e-06   2.41245958075355e-07
-1.6225530274966395e-05   2.802726497520069e-06   2.41245958075355e-07
-1.589160342922166e-05   0.0   -1.6018646170483285e-05
-1.589160342922166e-05   0.0   -1.6018646170483285e-05
-1.589160342922166e-05   0.0   -1.6018646170483285e-05
-1.589160342922166e-05   0.0   -1.6018646170483285e-05
-2.6700930800830494e-05   3.375519190112422e-06   -2.8412065202611605e-08
-2.6700930800830494e-05   3.375519190112422e-06   -2.8412065202611605e-08
-2.6700930800830494e-05   3.375519190112422e-06   -2.8412065202611605e-08
-2.6700930800830494e-05   3.375519190112422e-06   -2.8412065202611605e-08
-2.0710181033896393e-05   7.726036466344826e-07   -8.451245684006008e-06
-2.0710181033896393e-05   7.726036466344826e-07   -8.451245684006008e-06
-2.0710181033896393e-05   7.726036466344826e-07   -8.451245684006008e-06
-2.0710181033896393e-05   7.726036466344826e-07   -8.451245684006008e-06
-2.6700930800830538e-05   0.0   -1.8043957684550745e-05
-2.6700930800830538e-05   0.0   -1.8043957684550745e-05
-2.6700930800830538e-05   0.0   -1.8043957684550745e-05
-2.6700930800830538e-05   0.0   -1.8043957684550745e-05
-1.589160342922166e-05   3.375519190112429e-06   1.996899448864841e-06
-1.589160342922166e-05   3.375519190112429e-06   1.996899448864841e-06
-1.589160342922166e-05   3.375519190112429e-06   1.996899448864841e-06
-1.589160342922166e-05   3.375519190112429e-06   1.996899448864841e-06
-1.5922321811396254e-05   0.0   -1.6406931503017904e-05
-1.5922321811396254e-05   0.0   -1.6406931503017904e-05
-1.5922321811396254e-05   0.0   -1.6406931503017904e-05
-1.5922321811396254e-05   0.0   -1.6406931503017904e-05
-2.7517663368397256e-05   3.6196570175015177e-06   7.468435481495879e-07
-2.7517663368397256e-05   3.6196570175015177e-06   7.468435481495879e-07
-2.7517663368397256e-05   3.6196570175015177e-06   7.468435481495879e-07
-2.7517663368397256e-05   3.6196570175015177e-06   7.468435481495879e-07
-2.1311626306113362e-05   1.364188484610697e-06   -8.243270435922402e-06
-2.1311626306113362e-05   1.364188484610697e-06   -8.243270435922402e-06
-2.1311626306113362e-05   1.364188484610697e-06   -8.243270435922402e-06
-2.1311626306113362e-05   1.364188484610697e-06   -8.243270435922402e-06
-2.7517663368397303e-05   0.0   -1.857872571351882e-05
-2.7517663368397303e-05   0.0   -1.857872571351882e-05
-2.7517663368397303e-05   0.0   -1.857872571351882e-05
-2.7517663368397303e-05   0.0   -1.857872571351882e-05
-1.5922321811396254e-05   3.619657017501528e-06   2.918637758650508e-06
-1.5922321811396254e-05   3.619657017501528e-06   2.918637758650508e-06
-1.5922321811396254e-05   3.619657017501528e-06   2.918637758650508e-06
-1.5922321811396254e-05   3.619657017501528e-06   2.918637758650508e-06
-1.5898059456590546e-05   0.0   -1.6508928572901976e-05
-1.5898059456590546e-05   0.0   -1.6508928572901976e-05
-1.5898059456590546e-05   0.0   -1.6508928572901976e-05
-1.5898059456590546e-05   0.0   -1.6508928572901976e-05
-2.9291121793442496e-05   4.133826614414832e-06   3.3325460198691177e-06
-2.9291121793442496e-05   4.133826614414832e-06   3.3325460198691177e-06
-2.9291121793442496e-05   4.133826614414832e-06   3.3325460198691177e-06
-2.9291121793442496e-05   4.133826614414832e-06   3.3325460198691177e-06
-2.1707861412493887e-05   1.7248309505140353e-06   -7.860823883371413e-06
-2.1707861412493887e-05   1.7248309505140353e-06   -7.860823883371413e-06
-2.1707861412493887e-05   1.7248309505140353e-06   -7.860823883371413e-06
-2.1707861412493887e-05   1.7248309505140353e-06   -7.860823883371413e-06
-1.622553027496642e-05   0.0   -1.5264134647932623e-05
-1.622553027496642e-05   0.0   -1.5264134647932623e-05
-1.622553027496642e-05   0.0   -1.5264134647932623e-05
-1.622553027496642e-05   0.0   -1.5264134647932623e-05
-7.405498406541304e-06   1.0230348251086004e-06   4.9739361174386805e-08
-7.405498406541304e-06   1.0230348251086004e-06   4.9739361174386805e-08
-7.405498406541304e-06   1.0230348251086004e-06   4.9739361174386805e-08
-7.405498406541304e-06   1.0230348251086004e-06   4.9739361174386805e-08
-7.108762416088822e-06   0.0   -1.5139740745716688e-05
-7.108762416088822e-06   0.0   -1.5139740745716688e-05
-7.108762416088822e-06   0.0   -1.5139740745716688e-05
-7.108762416088822e-06   0.0   -1.5139740745716688e-05
-1.589160342922166e-05   1.464842374610995e-06   -1.3805778152618887e-06
-1.589160342922166e-05   1.464842374610995e-06   -1.3805778152618887e-06
-1.589160342922166e-05   1.464842374610995e-06   -1.3805778152618887e-06
-1.589160342922166e-05   1.464842374610995e-06   -1.3805778152618887e-06
-1.1667146345527602e-05   1.0366158517994563e-07   -7.604631147759971e-06
-1.1667146345527602e-05   1.0366158517994563e-07   -7.604631147759971e-06
-1.1667146345527602e-05   1.0366158517994563e-07   -7.604631147759971e-06
-1.1667146345527602e-05   1.0366158517994563e-07   -7.604631147759971e-06
-1.5891603429221647e-05   0.0   -1.6018646170483272e-05
-1.5891603429221647e-05   0.0   -1.6018646170483272e-05
-1.5891603429221647e-05   0.0   -1.6018646170483272e-05
-1.5891603429221647e-05   0.0   -1.6018646170483272e-05
-7.108762416088822e-06   1.464842374610995e-06   -5.016723904952913e-07
-7.108762416088822e-06   1.464842374610995e-06   -5.016723904952913e-07
-7.108762416088822e-06   1.464842374610995e-06   -5.016723904952913e-07
-7.108762416088822e-06   1.464842374610995e-06   -5.016723904952913e-07
-6.936343132387706e-06   0.0   -1.5326869693170743e-05
-6.936343132387706e-06   0.0   -1.5326869693170743e-05
-6.936343132387706e-06   0.0   -1.5326869693170743e-05
-6.936343132387706e-06   0.0   -1.5326869693170743e-05
-1.5922321811396254e-05   1.8001030164119323e-06   -1.4303003713369932e-06
-1.5922321811396254e-05   1.8001030164119323e-06   -1.4303003713369932e-06
-1.5922321811396254e-05   1.8001030164119323e-06   -1.4303003713369932e-06
-1.5922321811396254e-05   1.8001030164119323e-06   -1.4303003713369932e-06
-1.1413973280804662e-05   5.76480397760452e-07   -8.210041017798693e-06
-1.1413973280804662e-05   5.76480397760452e-07   -8.210041017798693e-06
-1.1413973280804662e-05   5.76480397760452e-07   -8.210041017798693e-06
-1.1413973280804662e-05   5.76480397760452e-07   -8.210041017798693e-06
-1.5922321811396254e-05   0.0   -1.6406931503017904e-05
-1.5922321811396254e-05   0.0   -1.6406931503017904e-05
-1.5922321811396254e-05   0.0   -1.6406931503017904e-05
-1.5922321811396254e-05   0.0   -1.6406931503017904e-05
-6.936343132387706e-06   1.8001030164119323e-06   -3.5023856148983075e-07
-6.936343132387706e-06   1.8001030164119323e-06   -3.5023856148983075e-07
-6.936343132387706e-06   1.8001030164119323e-06   -3.5023856148983075e-07
-6.936343132387706e-06   1.8001030164119323e-06   -3.5023856148983075e-07
-6.777012834806638e-06   0.0   -1.5250144078619476e-05
-6.777012834806638e-06   0.0   -1.5250144078619476e-05
-6.777012834806638e-06   0.0   -1.5250144078619476e-05
-6.777012834806638e-06   0.0   -1.5250144078619476e-05
-1.5898059456590505e-05   2.097974157137471e-06   -1.3071842032621266e-06
-1.5898059456590505e-05   2.097974157137471e-06   -1.3071842032621266e-06
-1.5898059456590505e-05   2.097974157137471e-06   -1.3071842032621266e-06
-1.5898059456590505e-05   2.097974157137471e-06   -1.3071842032621266e-06
-1.1349667323101443e-05   9.63989520332012e-07   -8.207446976994008e-06
-1.1349667323101443e-05   9.63989520332012e-07   -8.207446976994008e-06
-1.1349667323101443e-05   9.63989520332012e-07   -8.207446976994008e-06
-1.1349667323101443e-05   9.63989520332012e-07   -8.207446976994008e-06
-7.405498406541318e-06   0.0   -1.4650313752867463e-05
-7.405498406541318e-06   0.0   -1.4650313752867463e-05
-7.405498406541318e-06   0.0   -1.4650313752867463e-05
-7.405498406541318e-06   0.0   -1.4650313752867463e-05
9.157255546271317e-07   -1.3475004979049808e-07   -8.624571807943319e-07
9.157255546271317e-07   -1.3475004979049808e-07   -8.624571807943319e-07
9.157255546271317e-07   -1.3475004979049808e-07   -8.624571807943319e-07
9.157255546271317e-07   -1.3475004979049808e-07   -8.624571807943319e-07
1.1116672078369709e-06   0.0   -1.4982953037876456e-05
1.1116672078369709e-06   0.0   -1.4982953037876456e-05
1.1116672078369709e-06   0.0   -1.4982953037876456e-05
1.1116672078369709e-06   0.0   -1.4982953037876456e-05
-7.108762416088822e-06   2.613128464003016e-07   -1.4390247058403628e-06
-7.108762416088822e-06   2.613128464003016e-07   -1.4390247058403628e-06
-7.108762416088822e-06   2.613128464003016e-07   -1.4390247058403628e-06
-7.108762416088822e-06   2.613128464003016e-07   -1.4390247058403628e-06
-3.1469155993521656e-06   -2.771994041742038e-07   -7.718995383390056e-06
-3.1469155993521656e-06   -2.771994041742038e-07   -7.718995383390056e-06
-3.1469155993521656e-06   -2.771994041742038e-07   -7.718995383390056e-06
-3.1469155993521656e-06   -2.771994041742038e-07   -7.718995383390056e-06
-7.108762416088822e-06   0.0   -1.5139740745716688e-05
-7.108762416088822e-06   0.0   -1.5139740745716688e-05
-7.108762416088822e-06   0.0   -1.5139740745716688e-05
-7.108762416088822e-06   0.0   -1.5139740745716688e-05
1.1116672078369728e-06   2.613128464003016e-07   -1.2822369980001789e-06
1.1116672078369728e-06   2.613128464003016e-07   -1.2822369980001789e-06
1.1116672078369728e-06   2.613128464003016e-07   -1.2822369980001789e-06
1.1116672078369728e-06   2.613128464003016e-07   -1.2822369980001789e-06
1.2681802743197348e-06   0.0   -1.4960434973859248e-05
1.2681802743197348e-06   0.0   -1.4960434973859248e-05
1.2681802743197348e-06   0.0   -1.4960434973859248e-05
1.2681802743197348e-06   0.0   -1.4960434973859248e-05
-6.936343132387694e-06   6.107245321857827e-07   -1.652664015325003e-06
-6.936343132387694e-06   6.107245321857827e-07   -1.652664015325003e-06
-6.936343132387694e-06   6.107245321857827e-07   -1.652664015325003e-06
-6.936343132387694e-06   6.107245321857827e-07   -1.652664015325003e-06
-2.9202910708845423e-06   1.4942147654784585e-07   -8.06930228444751e-06
-2.9202910708845423e-06   1.4942147654784585e-07   -8.06930228444751e-06
-2.9202910708845423e-06   1.4942147654784585e-07   -8.06930228444751e-06
-2.9202910708845423e-06   1.4942147654784585e-07   -8.06930228444751e-06
-6.936343132387706e-06   0.0   -1.5326869693170743e-05
-6.936343132387706e-06   0.0   -1.5326869693170743e-05
-6.936343132387706e-06   0.0   -1.5326869693170743e-05
-6.936343132387706e-06   0.0   -1.5326869693170743e-05
1.2681802743197372e-06   6.107245321857827e-07   -1.286229296013537e-06
1.2681802743197372e-06   6.107245321857827e-07   -1.286229296013537e-06
1.2681802743197372e-06   6.107245321857827e-07   -1.286229296013537e-06
1.2681802743197372e-06   6.107245321857827e-07   -1.286229296013537e-06
1.4740891863780716e-06   0.0   -1.4641387646052628e-05
1.4740891863780716e-06   0.0   -1.4641387646052628e-05
1.4740891863780716e-06   0.0   -1.4641387646052628e-05
1.4740891863780716e-06   0.0   -1.4641387646052628e-05
-6.777012834806632e-06   1.01459405427806e-06   -1.4983073766449565e-06
-6.777012834806632e-06   1.01459405427806e-06   -1.4983073766449565e-06
-6.777012834806632e-06   1.01459405427806e-06   -1.4983073766449565e-06
-6.777012834806632e-06   1.01459405427806e-06   -1.4983073766449565e-06
-2.731126973004811e-06   5.712350392650759e-07   -7.975435070640197e-06
-2.731126973004811e-06   5.712350392650759e-07   -7.975435070640197e-06
-2.731126973004811e-06   5.712350392650759e-07   -7.975435070640197e-06
-2.731126973004811e-06   5.712350392650759e-07   -7.975435070640197e-06
9.157255546271333e-07   0.0   -1.4731163782741762e-05
9.157255546271333e-07   0.0   -1.4731163782741762e-05
9.157255546271333e-07   0.0   -1.4731163782741762e-05
9.157255546271333e-07   0.0   -1.4731163782741762e-05
9.960283126514613e-06   -1.1683137618330228e-06   -3.578894200290987e-07
9.960283126514613e-06   -1.1683137618330228e-06   -3.578894200290987e-07
9.960283126514613e-06   -1.1683137618330228e-06   -3.578894200290987e-07
9.960283126514613e-06   -1.1683137618330228e-06   -3.578894200290987e-07
9.995552690657475e-06   0.0   -1.5509021003000185e-05
9.995552690657475e-06   0.0   -1.5509021003000185e-05
9.995552690657475e-06   0.0   -1.5509021003000185e-05
9.995552690657475e-06   0.0   -1.5509021003000185e-05
1.1116672078369747e-06   -8.76779941872791e-07   -1.7647723317567635e-07
1.1116672078369747e-06   -8.76779941872791e-07   -1.7647723317567635e-07
1.1116672078369747e-06   -8.76779941872791e-07   -1.7647723317567635e-07
1.1116672078369747e-06   -8.76779941872791e-07   -1.7647723317567635e-07
5.455639122642304e-06   -6.482143502153519e-07   -7.55356977951235e-06
5.455639122642304e-06   -6.482143502153519e-07   -7.55356977951235e-06
5.455639122642304e-06   -6.482143502153519e-07   -7.55356977951235e-06
5.455639122642304e-06   -6.482143502153519e-07   -7.55356977951235e-06
1.1116672078369747e-06   0.0   -1.4982953037876508e-05
1.1116672078369747e-06   0.0   -1.4982953037876508e-05
1.1116672078369747e-06   0.0   -1.4982953037876508e-05
1.1116672078369747e-06   0.0   -1.4982953037876508e-05
9.995552690657475e-06   -8.76779941872791e-07   -7.025451982993528e-07
9.995552690657475e-06   -8.76779941872791e-07   -7.025451982993528e-07
9.995552690657475e-06   -8.76779941872791e-07   -7.025451982993528e-07
9.995552690657475e-06   -8.76779941872791e-07   -7.025451982993528e-07
9.96787477413261e-06   0.0   -1.5287683830314058e-05
9.96787477413261e-06   0.0   -1.5287683830314058e-05
9.96787477413261e-06   0.0   -1.5287683830314058e-05
9.96787477413261e-06   0.0   -1.5287683830314058e-05
1.2681802743197372e-06   -5.454147607579743e-07   -4.6094414083782076e-07
1.2681802743197372e-06   -5.454147607579743e-07   -4.6094414083782076e-07
1.2681802743197372e-06   -5.454147607579743e-07   -4.6094414083782076e-07
1.2681802743197372e-06   -5.454147607579743e-07   -4.6094414083782076e-07
5.539770990984793e-06   -2.539423270312921e-07   -7.75514546218225e-06
5.539770990984793e-06   -2.539423270312921e-07   -7.75514546218225e-06
5.539770990984793e-06   -2.539423270312921e-07   -7.75514546218225e-06
5.539770990984793e-06   -2.539423270312921e-07   -7.75514546218225e-06
1.2681802743197359e-06   0.0   -1.4960434973859261e-05
1.2681802743197359e-06   0.0   -1.4960434973859261e-05
1.2681802743197359e-06   0.0   -1.4960434973859261e-05
1.2681802743197359e-06   0.0   -1.4960434973859261e-05
9.96787477413261e-06   -5.454147607579743e-07   -7.881929972926061e-07
9.96787477413261e-06   -5.454147607579743e-07   -7.881929972926061e-07
9.96787477413261e-06   -5.454147607579743e-07   -7.881929972926061e-07
9.96787477413261e-06   -5.454147607579743e-07   -7.881929972926061e-07
1.0175461959669243e-05   0.0   -1.4702021269994349e-05
1.0175461959669243e-05   0.0   -1.4702021269994349e-05
1.0175461959669243e-05   0.0   -1.4702021269994349e-05
1.0175461959669243e-05   0.0   -1.4702021269994349e-05
1.4740891863780742e-06   -1.0105603990282538e-07   -1.3909969056737656e-07
1.4740891863780742e-06   -1.0105603990282538e-07   -1.3909969056737656e-07
1.4740891863780742e-06   -1.0105603990282538e-07   -1.3909969056737656e-07
1.4740891863780742e-06   -1.0105603990282538e-07   -1.3909969056737656e-07
5.721821116994485e-06   2.1534475322077184e-07   -7.408493384135544e-06
5.721821116994485e-06   2.1534475322077184e-07   -7.408493384135544e-06
5.721821116994485e-06   2.1534475322077184e-07   -7.408493384135544e-06
5.721821116994485e-06   2.1534475322077184e-07   -7.408493384135544e-06
9.960283126514613e-06   0.0   -1.5432152039841577e-05
9.960283126514613e-06   0.0   -1.5432152039841577e-05
9.960283126514613e-06   0.0   -1.5432152039841577e-05
9.960283126514613e-06   0.0   -1.5432152039841577e-05
2.257960009554254e-05   -2.9734822732020732e-06   3.8159535446171774e-06
2.257960009554254e-05   -2.9734822732020732e-06   3.8159535446171774e-06
2.257960009554254e-05   -2.9734822732020732e-06   3.8159535446171774e-06
2.257960009554254e-05   -2.9734822732020732e-06   3.8159535446171774e-06
2.1228695575567668e-05   0.0   -1.7021432787980274e-05
2.1228695575567668e-05   0.0   -1.7021432787980274e-05
2.1228695575567668e-05   0.0   -1.7021432787980274e-05
2.1228695575567668e-05   0.0   -1.7021432787980274e-05
9.995552690657475e-06   -2.5206863083001514e-06   3.212883805183463e-06
9.995552690657475e-06   -2.5206863083001514e-06   3.212883805183463e-06
9.995552690657475e-06   -2.5206863083001514e-06   3.212883805183463e-06
9.995552690657475e-06   -2.5206863083001514e-06   3.212883805183463e-06
1.559448935104114e-05   -1.3244006234489162e-06   -6.8364487063667066e-06
1.559448935104114e-05   -1.3244006234489162e-06   -6.8364487063667066e-06
1.559448935104114e-05   -1.3244006234489162e-06   -6.8364487063667066e-06
1.559448935104114e-05   -1.3244006234489162e-06   -6.8364487063667066e-06
9.995552690657467e-06   0.0   -1.550902100300017e-05
9.995552690657467e-06   0.0   -1.550902100300017e-05
9.995552690657467e-06   0.0   -1.550902100300017e-05
9.995552690657467e-06   0.0   -1.550902100300017e-05
2.1228695575567594e-05   -2.520686308300141e-06   1.700472020203374e-06
2.1228695575567594e-05   -2.520686308300141e-06   1.700472020203374e-06
2.1228695575567594e-05   -2.520686308300141e-06   1.700472020203374e-06
2.1228695575567594e-05   -2.520686308300141e-06   1.700472020203374e-06
2.0612574270584874e-05   0.0   -1.6667713757683018e-05
2.0612574270584874e-05   0.0   -1.6667713757683018e-05
2.0612574270584874e-05   0.0   -1.6667713757683018e-05
2.0612574270584874e-05   0.0   -1.6667713757683018e-05
9.96787477413261e-06   -2.300049878948267e-06   2.45348199710638e-06
9.96787477413261e-06   -2.300049878948267e-06   2.45348199710638e-06
9.96787477413261e-06   -2.300049878948267e-06   2.45348199710638e-06
9.96787477413261e-06   -2.300049878948267e-06   2.45348199710638e-06
1.5304063480621165e-05   -9.6557729556903e-07   -7.240849397068755e-06
1.5304063480621165e-05   -9.6557729556903e-07   -7.240849397068755e-06
1.5304063480621165e-05   -9.6557729556903e-07   -7.240849397068755e-06
1.5304063480621165e-05   -9.6557729556903e-07   -7.240849397068755e-06
9.96787477413261e-06   0.0   -1.5287683830314058e-05
9.96787477413261e-06   0.0   -1.5287683830314058e-05
9.96787477413261e-06   0.0   -1.5287683830314058e-05
9.96787477413261e-06   0.0   -1.5287683830314058e-05
2.0612574270584802e-05   -2.30004987894826e-06   1.073452069737413e-06
2.0612574270584802e-05   -2.30004987894826e-06   1.073452069737413e-06
2.0612574270584802e-05   -2.30004987894826e-06   1.073452069737413e-06
2.0612574270584802e-05   -2.30004987894826e-06   1.073452069737413e-06
1.9684766826098584e-05   0.0   -1.5768073434093335e-05
1.9684766826098584e-05   0.0   -1.5768073434093335e-05
1.9684766826098584e-05   0.0   -1.5768073434093335e-05
1.9684766826098584e-05   0.0   -1.5768073434093335e-05
1.0175461959669243e-05   -1.7767536068316874e-06   1.1468201740546102e-06
1.0175461959669243e-05   -1.7767536068316874e-06   1.1468201740546102e-06
1.0175461959669243e-05   -1.7767536068316874e-06   1.1468201740546102e-06
1.0175461959669243e-05   -1.7767536068316874e-06   1.1468201740546102e-06
1.4826320800115615e-05   -4.003246698160864e-07   -7.430468588898698e-06
1.4826320800115615e-05   -4.003246698160864e-07   -7.430468588898698e-06
1.4826320800115615e-05   -4.003246698160864e-07   -7.430468588898698e-06
1.4826320800115615e-05   -4.003246698160864e-07   -7.430468588898698e-06
-2.2008279084304535e-05   2.8027264975200623e-06   -1.4567431128886316e-05
-2.2008279084304535e-05   2.8027264975200623e-06   -1.4567431128886316e-05
-2.2008279084304535e-05   2.8027264975200623e-06   -1.4567431128886316e-05