<?xml version="1.0"?> 
<VTKFile type="UnstructuredGrid"> 
   <UnstructuredGrid> 
      <Piece NumberOfPoints="6000"  NumberOfCells="1500">  
          <Points>  
             <DataArray type="Float64" NumberOfComponents="3" format="ascii">   
-500.0   0.0   0.0
-450.0   0.0   0.0
-500.0   30.0   0.0
-500.0   0.0   16.666666666666668
-450.0   0.0   0.0
-450.0   30.0   0.0
-500.0   30.0   0.0
-450.0   30.0   16.666666666666668
-500.0   0.0   16.666666666666668
-500.0   30.0   16.666666666666668
-450.0   30.0   16.666666666666668
-500.0   30.0   0.0
-500.0   0.0   16.666666666666668
-450.0   30.0   16.666666666666668
-450.0   0.0   16.666666666666668
-450.0   0.0   0.0
-500.0   0.0   16.666666666666668
-450.0   30.0   16.666666666666668
-450.0   0.0   0.0
-500.0   30.0   0.0
-500.0   0.0   16.666666666666668
-450.0   0.0   16.666666666666668
-500.0   30.0   16.666666666666668
-500.0   0.0   33.333333333333336
-450.0   0.0   16.666666666666668
-450.0   30.0   16.666666666666668
-500.0   30.0   16.666666666666668
-450.0   30.0   33.333333333333336
-500.0   0.0   33.333333333333336
-500.0   30.0   33.333333333333336
-450.0   30.0   33.333333333333336
-500.0   30.0   16.666666666666668
-500.0   0.0   33.333333333333336
-450.0   30.0   33.333333333333336
-450.0   0.0   33.333333333333336
-450.0   0.0   16.666666666666668
-500.0   0.0   33.333333333333336
-450.0   30.0   33.333333333333336
-450.0   0.0   16.666666666666668
-500.0   30.0   16.666666666666668
-500.0   0.0   33.333333333333336
-450.0   0.0   33.333333333333336
-500.0   30.0   33.333333333333336
-500.0   0.0   50.0
-450.0   0.0   33.333333333333336
-450.0   30.0   33.333333333333336
-500.0   30.0   33.333333333333336
-450.0   30.0   50.0
-500.0   0.0   50.0
-500.0   30.0   50.0
-450.0   30.0   50.0
-500.0   30.0   33.333333333333336
-500.0   0.0   50.0
-450.0   30.0   50.0
-450.0   0.0   50.0
-450.0   0.0   33.333333333333336
-500.0   0.0   50.0
-450.0   30.0   50.0
-450.0   0.0   33.333333333333336
-500.0   30.0   33.333333333333336
-500.0   30.0   0.0
-450.0   30.0   0.0
-500.0   60.0   0.0
-500.0   30.0   16.666666666666668
-450.0   30.0   0.0
-450.0   60.0   0.0
-500.0   60.0   0.0
-450.0   60.0   16.666666666666668
-500.0   30.0   16.666666666666668
-500.0   60.0   16.666666666666668
-450.0   60.0   16.666666666666668
-500.0   60.0   0.0
-500.0   30.0   16.666666666666668
-450.0   60.0   16.666666666666668
-450.0   30.0   16.666666666666668
-450.0   30.0   0.0
-500.0   30.0   16.666666666666668
-450.0   60.0   16.666666666666668
-450.0   30.0   0.0
-500.0   60.0   0.0
-500.0   30.0   16.666666666666668
-450.0   30.0   16.666666666666668
-500.0   60.0   16.666666666666668
-500.0   30.0   33.333333333333336
-450.0   30.0   16.666666666666668
-450.0   60.0   16.666666666666668
-500.0   60.0   16.666666666666668
-450.0   60.0   33.333333333333336
-500.0   30.0   33.333333333333336
-500.0   60.0   33.333333333333336
-450.0   60.0   33.333333333333336
-500.0   60.0   16.666666666666668
-500.0   30.0   33.333333333333336
-450.0   60.0   33.333333333333336
-450.0   30.0   33.333333333333336
-450.0   30.0   16.666666666666668
-500.0   30.0   33.333333333333336
-450.0   60.0   33.333333333333336
-450.0   30.0   16.666666666666668
-500.0   60.0   16.666666666666668
-500.0   30.0   33.333333333333336
-450.0   30.0   33.333333333333336
-500.0   60.0   33.333333333333336
-500.0   30.0   50.0
-450.0   30.0   33.333333333333336
-450.0   60.0   33.333333333333336
-500.0   60.0   33.333333333333336
-450.0   60.0   50.0
-500.0   30.0   50.0
-500.0   60.0   50.0
-450.0   60.0   50.0
-500.0   60.0   33.333333333333336
-500.0   30.0   50.0
-450.0   60.0   50.0
-450.0   30.0   50.0
-450.0   30.0   33.333333333333336
-500.0   30.0   50.0
-450.0   60.0   50.0
-450.0   30.0   33.333333333333336
-500.0   60.0   33.333333333333336
-500.0   60.0   0.0
-450.0   60.0   0.0
-500.0   90.0   0.0
-500.0   60.0   16.666666666666668
-450.0   60.0   0.0
-450.0   90.0   0.0
-500.0   90.0   0.0
-450.0   90.0   16.666666666666668
-500.0   60.0   16.666666666666668
-500.0   90.0   16.666666666666668
-450.0   90.0   16.666666666666668
-500.0   90.0   0.0
-500.0   60.0   16.666666666666668
-450.0   90.0   16.666666666666668
-450.0   60.0   16.666666666666668
-450.0   60.0   0.0
-500.0   60.0   16.666666666666668
-450.0   90.0   16.666666666666668
-450.0   60.0   0.0
-500.0   90.0   0.0
-500.0   60.0   16.666666666666668
-450.0   60.0   16.666666666666668
-500.0   90.0   16.666666666666668
-500.0   60.0   33.333333333333336
-450.0   60.0   16.666666666666668
-450.0   90.0   16.666666666666668
-500.0   90.0   16.666666666666668
-450.0   90.0   33.333333333333336
-500.0   60.0   33.333333333333336
-500.0   90.0   33.333333333333336
-450.0   90.0   33.333333333333336
-500.0   90.0   16.666666666666668
-500.0   60.0   33.333333333333336
-450.0   90.0   33.333333333333336
-450.0   60.0   33.333333333333336
-450.0   60.0   16.666666666666668
-500.0   60.0   33.333333333333336
-450.0   90.0   33.333333333333336
-450.0   60.0   16.666666666666668
-500.0   90.0   16.666666666666668
-500.0   60.0   33.333333333333336
-450.0   60.0   33.333333333333336
-500.0   90.0   33.333333333333336
-500.0   60.0   50.0
-450.0   60.0   33.333333333333336
-450.0   90.0   33.333333333333336
-500.0   90.0   33.333333333333336
-450.0   90.0   50.0
-500.0   60.0   50.0
-500.0   90.0   50.0
-450.0   90.0   50.0
-500.0   90.0   33.333333333333336
-500.0   60.0   50.0
-450.0   90.0   50.0
-450.0   60.0   50.0
-450.0   60.0   33.333333333333336
-500.0   60.0   50.0
-450.0   90.0   50.0
-450.0   60.0   33.333333333333336
-500.0   90.0   33.333333333333336
-500.0   90.0   0.0
-450.0   90.0   0.0
-500.0   120.0   0.0
-500.0   90.0   16.666666666666668
-450.0   90.0   0.0
-450.0   120.0   0.0
-500.0   120.0   0.0
-450.0   120.0   16.666666666666668
-500.0   90.0   16.666666666666668
-500.0   120.0   16.666666666666668
-450.0   120.0   16.666666666666668
-500.0   120.0   0.0
-500.0   90.0   16.666666666666668
-450.0   120.0   16.666666666666668
-450.0   90.0   16.666666666666668
-450.0   90.0   0.0
-500.0   90.0   16.666666666666668
-450.0   120.0   16.666666666666668
-450.0   90.0   0.0
-500.0   120.0   0.0
-500.0   90.0   16.666666666666668
-450.0   90.0   16.666666666666668
-500.0   120.0   16.666666666666668
-500.0   90.0   33.333333333333336
-450.0   90.0   16.666666666666668
-450.0   120.0   16.666666666666668
-500.0   120.0   16.666666666666668
-450.0   120.0   33.333333333333336
-500.0   90.0   33.333333333333336
-500.0   120.0   33.333333333333336
-450.0   120.0   33.333333333333336
-500.0   120.0   16.666666666666668
-500.0   90.0   33.333333333333336
-450.0   120.0   33.333333333333336
-450.0   90.0   33.333333333333336
-450.0   90.0   16.666666666666668
-500.0   90.0   33.333333333333336
-450.0   120.0   33.333333333333336
-450.0   90.0   16.666666666666668
-500.0   120.0   16.666666666666668
-500.0   90.0   33.333333333333336
-450.0   90.0   33.333333333333336
-500.0   120.0   33.333333333333336
-500.0   90.0   50.0
-450.0   90.0   33.333333333333336
-450.0   120.0   33.333333333333336
-500.0   120.0   33.333333333333336
-450.0   120.0   50.0
-500.0   90.0   50.0
-500.0   120.0   50.0
-450.0   120.0   50.0
-500.0   120.0   33.333333333333336
-500.0   90.0   50.0
-450.0   120.0   50.0
-450.0   90.0   50.0
-450.0   90.0   33.333333333333336
-500.0   90.0   50.0
-450.0   120.0   50.0
-450.0   90.0   33.333333333333336
-500.0   120.0   33.333333333333336
-500.0   120.0   0.0
-450.0   120.0   0.0
-500.0   150.0   0.0
-500.0   120.0   16.666666666666668
-450.0   120.0   0.0
-450.0   150.0   0.0
-500.0   150.0   0.0
-450.0   150.0   16.666666666666668
-500.0   120.0   16.666666666666668
-500.0   150.0   16.666666666666668
-450.0   150.0   16.666666666666668
-500.0   150.0   0.0
-500.0   120.0   16.666666666666668
-450.0   150.0   16.666666666666668
-450.0   120.0   16.666666666666668
-450.0   120.0   0.0
-500.0   120.0   16.666666666666668
-450.0   150.0   16.666666666666668
-450.0   120.0   0.0
-500.0   150.0   0.0
-500.0   120.0   16.666666666666668
-450.0   120.0   16.666666666666668
-500.0   150.0   16.666666666666668
-500.0   120.0   33.333333333333336
-450.0   120.0   16.666666666666668
-450.0   150.0   16.666666666666668
-500.0   150.0   16.666666666666668
-450.0   150.0   33.333333333333336
-500.0   120.0   33.333333333333336
-500.0   150.0   33.333333333333336
-450.0   150.0   33.333333333333336
-500.0   150.0   16.666666666666668
-500.0   120.0   33.333333333333336
-450.0   150.0   33.333333333333336
-450.0   120.0   33.333333333333336
-450.0   120.0   16.666666666666668
-500.0   120.0   33.333333333333336
-450.0   150.0   33.333333333333336
-450.0   120.0   16.666666666666668
-500.0   150.0   16.666666666666668
-500.0   120.0   33.333333333333336
-450.0   120.0   33.333333333333336
-500.0   150.0   33.333333333333336
-500.0   120.0   50.0
-450.0   120.0   33.333333333333336
-450.0   150.0   33.333333333333336
-500.0   150.0   33.333333333333336
-450.0   150.0   50.0
-500.0   120.0   50.0
-500.0   150.0   50.0
-450.0   150.0   50.0
-500.0   150.0   33.333333333333336
-500.0   120.0   50.0
-450.0   150.0   50.0
-450.0   120.0   50.0
-450.0   120.0   33.333333333333336
-500.0   120.0   50.0
-450.0   150.0   50.0
-450.0   120.0   33.333333333333336
-500.0   150.0   33.333333333333336
-450.0   0.0   0.0
-400.0   0.0   0.0
-450.0   30.0   0.0
-450.0   0.0   16.666666666666668
-400.0   0.0   0.0
-400.0   30.0   0.0
-450.0   30.0   0.0
-400.0   30.0   16.666666666666668
-450.0   0.0   16.666666666666668
-450.0   30.0   16.666666666666668
-400.0   30.0   16.666666666666668
-450.0   30.0   0.0
-450.0   0.0   16.666666666666668
-400.0   30.0   16.666666666666668
-400.0   0.0   16.666666666666668
-400.0   0.0   0.0
-450.0   0.0   16.666666666666668
-400.0   30.0   16.666666666666668
-400.0   0.0   0.0
-450.0   30.0   0.0
-450.0   0.0   16.666666666666668
-400.0   0.0   16.666666666666668
-450.0   30.0   16.666666666666668
[...]
          <PointData>  
             <DataArray type="Float64" NumberOfComponents="3" Name="Strains" format="ascii">   
-7.559751794597349e-05   0.0   -4.9667250200050664e-05
-7.559751794597349e-05   0.0   -4.9667250200050664e-05
-7.559751794597349e-05   0.0   -4.9667250200050664e-05
-7.559751794597349e-05   0.0   -4.9667250200050664e-05
-4.8098975547872125e-05   8.36779369523483e-06   1.1843300139257538e-06
-4.8098975547872125e-05   8.36779369523483e-06   1.1843300139257538e-06
-4.8098975547872125e-05   8.36779369523483e-06   1.1843300139257538e-06
-4.8098975547872125e-05   8.36779369523483e-06   1.1843300139257538e-06
-4.714428092673233e-05   0.0   -4.688299571180947e-05
-4.714428092673233e-05   0.0   -4.688299571180947e-05
-4.714428092673233e-05   0.0   -4.688299571180947e-05
-4.714428092673233e-05   0.0   -4.688299571180947e-05
-7.911211086391813e-05   1.0045100136217802e-05   3.6966076843639563e-07
-7.911211086391813e-05   1.0045100136217802e-05   3.6966076843639563e-07
-7.911211086391813e-05   1.0045100136217802e-05   3.6966076843639563e-07
-7.911211086391813e-05   1.0045100136217802e-05   3.6966076843639563e-07
-6.13708994363528e-05   2.320212073534323e-06   -2.456409210656237e-05
-6.13708994363528e-05   2.320212073534323e-06   -2.456409210656237e-05
-6.13708994363528e-05   2.320212073534323e-06   -2.456409210656237e-05
-6.13708994363528e-05   2.320212073534323e-06   -2.456409210656237e-05
-7.911211086391826e-05   0.0   -5.2910055793540164e-05
-7.911211086391826e-05   0.0   -5.2910055793540164e-05
-7.911211086391826e-05   0.0   -5.2910055793540164e-05
-7.911211086391826e-05   0.0   -5.2910055793540164e-05
-4.714428092673233e-05   1.004510013621783e-05   6.396720850167085e-06
-4.714428092673233e-05   1.004510013621783e-05   6.396720850167085e-06
-4.714428092673233e-05   1.004510013621783e-05   6.396720850167085e-06
-4.714428092673233e-05   1.004510013621783e-05   6.396720850167085e-06
-4.727350281216274e-05   0.0   -4.802952184765865e-05
-4.727350281216274e-05   0.0   -4.802952184765865e-05
-4.727350281216274e-05   0.0   -4.802952184765865e-05
-4.727350281216274e-05   0.0   -4.802952184765865e-05
-8.157866113598215e-05   1.0762715138609737e-05   2.6881129422080612e-06
-8.157866113598215e-05   1.0762715138609737e-05   2.6881129422080612e-06
-8.157866113598215e-05   1.0762715138609737e-05   2.6881129422080612e-06
-8.157866113598215e-05   1.0762715138609737e-05   2.6881129422080612e-06
-6.319280683804039e-05   4.0671116215679255e-06   -2.3937615444136407e-05
-6.319280683804039e-05   4.0671116215679255e-06   -2.3937615444136407e-05
-6.319280683804039e-05   4.0671116215679255e-06   -2.3937615444136407e-05
-6.319280683804039e-05   4.0671116215679255e-06   -2.3937615444136407e-05
-8.157866113598229e-05   0.0   -5.44871509308245e-05
-8.157866113598229e-05   0.0   -5.44871509308245e-05
-8.157866113598229e-05   0.0   -5.44871509308245e-05
-8.157866113598229e-05   0.0   -5.44871509308245e-05
-4.727350281216274e-05   1.0762715138609751e-05   9.14574202537392e-06
-4.727350281216274e-05   1.0762715138609751e-05   9.14574202537392e-06
-4.727350281216274e-05   1.0762715138609751e-05   9.14574202537392e-06
-4.727350281216274e-05   1.0762715138609751e-05   9.14574202537392e-06
-4.7244446310247776e-05   0.0   -4.8324722044891244e-05
-4.7244446310247776e-05   0.0   -4.8324722044891244e-05
-4.7244446310247776e-05   0.0   -4.8324722044891244e-05
-4.7244446310247776e-05   0.0   -4.8324722044891244e-05
-8.68959948599232e-05   1.226376230679973e-05   1.0402934820488203e-05
-8.68959948599232e-05   1.226376230679973e-05   1.0402934820488203e-05
-8.68959948599232e-05   1.226376230679973e-05   1.0402934820488203e-05
-8.68959948599232e-05   1.226376230679973e-05   1.0402934820488203e-05
-6.441155372311492e-05   5.135357404944376e-06   -2.2794090799745725e-05
-6.441155372311492e-05   5.135357404944376e-06   -2.2794090799745725e-05
-6.441155372311492e-05   5.135357404944376e-06   -2.2794090799745725e-05
-6.441155372311492e-05   5.135357404944376e-06   -2.2794090799745725e-05
-4.8098975547872206e-05   0.0   -4.464657398290975e-05
-4.8098975547872206e-05   0.0   -4.464657398290975e-05
-4.8098975547872206e-05   0.0   -4.464657398290975e-05
-4.8098975547872206e-05   0.0   -4.464657398290975e-05
-2.1908850886841493e-05   3.067634500051786e-06   8.442144855058136e-07
-2.1908850886841493e-05   3.067634500051786e-06   8.442144855058136e-07
-2.1908850886841493e-05   3.067634500051786e-06   8.442144855058136e-07
-2.1908850886841493e-05   3.067634500051786e-06   8.442144855058136e-07
-2.1067984187189753e-05   0.0   -4.4261202942352554e-05
-2.1067984187189753e-05   0.0   -4.4261202942352554e-05
-2.1067984187189753e-05   0.0   -4.4261202942352554e-05
-2.1067984187189753e-05   0.0   -4.4261202942352554e-05
-4.714428092673233e-05   4.3696546157615115e-06   -3.4225011459051784e-06
-4.714428092673233e-05   4.3696546157615115e-06   -3.4225011459051784e-06
-4.714428092673233e-05   4.3696546157615115e-06   -3.4225011459051784e-06
-4.714428092673233e-05   4.3696546157615115e-06   -3.4225011459051784e-06
-3.458347986753092e-05   3.211425337976706e-07   -2.1928062328729052e-05
-3.458347986753092e-05   3.211425337976706e-07   -2.1928062328729052e-05
-3.458347986753092e-05   3.211425337976706e-07   -2.1928062328729052e-05
-3.458347986753092e-05   3.211425337976706e-07   -2.1928062328729052e-05
-4.714428092673229e-05   0.0   -4.688299571180943e-05
-4.714428092673229e-05   0.0   -4.688299571180943e-05
-4.714428092673229e-05   0.0   -4.688299571180943e-05
-4.714428092673229e-05   0.0   -4.688299571180943e-05
-2.1067984187189753e-05   4.3696546157615115e-06   -8.007083764482648e-07
-2.1067984187189753e-05   4.3696546157615115e-06   -8.007083764482648e-07
-2.1067984187189753e-05   4.3696546157615115e-06   -8.007083764482648e-07
-2.1067984187189753e-05   4.3696546157615115e-06   -8.007083764482648e-07
-2.0594201467592758e-05   0.0   -4.481602839126727e-05
-2.0594201467592758e-05   0.0   -4.481602839126727e-05
-2.0594201467592758e-05   0.0   -4.481602839126727e-05
-2.0594201467592758e-05   0.0   -4.481602839126727e-05
-4.727350281216274e-05   5.355822427318961e-06   -3.5640196067086806e-06
-4.727350281216274e-05   5.355822427318961e-06   -3.5640196067086806e-06
-4.727350281216274e-05   5.355822427318961e-06   -3.5640196067086806e-06
-4.727350281216274e-05   5.355822427318961e-06   -3.5640196067086806e-06
-3.386924119716247e-05   1.7224727671184982e-06   -2.372444583558865e-05
-3.386924119716247e-05   1.7224727671184982e-06   -2.372444583558865e-05
-3.386924119716247e-05   1.7224727671184982e-06   -2.372444583558865e-05
-3.386924119716247e-05   1.7224727671184982e-06   -2.372444583558865e-05
-4.727350281216274e-05   0.0   -4.802952184765865e-05
-4.727350281216274e-05   0.0   -4.802952184765865e-05
-4.727350281216274e-05   0.0   -4.802952184765865e-05
-4.727350281216274e-05   0.0   -4.802952184765865e-05
-2.0594201467592758e-05   5.355822427318961e-06   -3.505261503172999e-07
-2.0594201467592758e-05   5.355822427318961e-06   -3.505261503172999e-07
-2.0594201467592758e-05   5.355822427318961e-06   -3.505261503172999e-07
-2.0594201467592758e-05   5.355822427318961e-06   -3.505261503172999e-07
-2.0162168465861728e-05   0.0   -4.4584916035511854e-05
-2.0162168465861728e-05   0.0   -4.4584916035511854e-05
-2.0162168465861728e-05   0.0   -4.4584916035511854e-05
-2.0162168465861728e-05   0.0   -4.4584916035511854e-05
-4.7244446310247654e-05   6.233010015632237e-06   -3.187592304247812e-06
-4.7244446310247654e-05   6.233010015632237e-06   -3.187592304247812e-06
-4.7244446310247654e-05   6.233010015632237e-06   -3.187592304247812e-06
-4.7244446310247654e-05   6.233010015632237e-06   -3.187592304247812e-06
-3.3717835639012226e-05   2.8705048434556323e-06   -2.3714440319667748e-05
-3.3717835639012226e-05   2.8705048434556323e-06   -2.3714440319667748e-05
-3.3717835639012226e-05   2.8705048434556323e-06   -2.3714440319667748e-05
-3.3717835639012226e-05   2.8705048434556323e-06   -2.3714440319667748e-05
-2.190885088684153e-05   0.0   -4.2805993282878685e-05
-2.190885088684153e-05   0.0   -4.2805993282878685e-05
-2.190885088684153e-05   0.0   -4.2805993282878685e-05
-2.190885088684153e-05   0.0   -4.2805993282878685e-05
2.8327063272846736e-06   -3.940200081488886e-07   -1.8064765975576375e-06
2.8327063272846736e-06   -3.940200081488886e-07   -1.8064765975576375e-06
2.8327063272846736e-06   -3.940200081488886e-07   -1.8064765975576375e-06
2.8327063272846736e-06   -3.940200081488886e-07   -1.8064765975576375e-06
3.3711607618811195e-06   0.0   -4.379613021914045e-05
3.3711607618811195e-06   0.0   -4.379613021914045e-05
3.3711607618811195e-06   0.0   -4.379613021914045e-05
3.3711607618811195e-06   0.0   -4.379613021914045e-05
-2.1067984187189753e-05   7.751212053532544e-07   -3.52929469390109e-06
-2.1067984187189753e-05   7.751212053532544e-07   -3.52929469390109e-06
-2.1067984187189753e-05   7.751212053532544e-07   -3.52929469390109e-06
-2.1067984187189753e-05   7.751212053532544e-07   -3.52929469390109e-06
-9.268845062480184e-06   -8.251141135515953e-07   -2.2234385377074037e-05
-9.268845062480184e-06   -8.251141135515953e-07   -2.2234385377074037e-05
-9.268845062480184e-06   -8.251141135515953e-07   -2.2234385377074037e-05
-9.268845062480184e-06   -8.251141135515953e-07   -2.2234385377074037e-05
-2.1067984187189753e-05   0.0   -4.4261202942352554e-05
-2.1067984187189753e-05   0.0   -4.4261202942352554e-05
-2.1067984187189753e-05   0.0   -4.4261202942352554e-05
-2.1067984187189753e-05   0.0   -4.4261202942352554e-05
3.3711607618811255e-06   7.751212053532544e-07   -3.0642219706891224e-06
3.3711607618811255e-06   7.751212053532544e-07   -3.0642219706891224e-06
3.3711607618811255e-06   7.751212053532544e-07   -3.0642219706891224e-06
3.3711607618811255e-06   7.751212053532544e-07   -3.0642219706891224e-06
3.7966365835905353e-06   0.0   -4.3733186554344045e-05
3.7966365835905353e-06   0.0   -4.3733186554344045e-05
3.7966365835905353e-06   0.0   -4.3733186554344045e-05
3.7966365835905353e-06   0.0   -4.3733186554344045e-05
-2.0594201467592724e-05   1.8047363948719047e-06   -4.164631639295104e-06
-2.0594201467592724e-05   1.8047363948719047e-06   -4.164631639295104e-06
-2.0594201467592724e-05   1.8047363948719047e-06   -4.164631639295104e-06
-2.0594201467592724e-05   1.8047363948719047e-06   -4.164631639295104e-06
-8.635673801799606e-06   4.4001365667370164e-07   -2.3276677439364742e-05
-8.635673801799606e-06   4.4001365667370164e-07   -2.3276677439364742e-05
-8.635673801799606e-06   4.4001365667370164e-07   -2.3276677439364742e-05
-8.635673801799606e-06   4.4001365667370164e-07   -2.3276677439364742e-05
-2.0594201467592758e-05   0.0   -4.481602839126727e-05
-2.0594201467592758e-05   0.0   -4.481602839126727e-05
-2.0594201467592758e-05   0.0   -4.481602839126727e-05
-2.0594201467592758e-05   0.0   -4.481602839126727e-05
3.796636583590542e-06   1.8047363948719183e-06   -3.081789802371961e-06
3.796636583590542e-06   1.8047363948719183e-06   -3.081789802371961e-06
3.796636583590542e-06   1.8047363948719183e-06   -3.081789802371961e-06
3.796636583590542e-06   1.8047363948719183e-06   -3.081789802371961e-06
4.36787703309348e-06   0.0   -4.278667330203481e-05
4.36787703309348e-06   0.0   -4.278667330203481e-05
4.36787703309348e-06   0.0   -4.278667330203481e-05
4.36787703309348e-06   0.0   -4.278667330203481e-05
-2.016216846586171e-05   2.99707122246167e-06   -3.7015068705865023e-06
-2.016216846586171e-05   2.99707122246167e-06   -3.7015068705865023e-06
-2.016216846586171e-05   2.99707122246167e-06   -3.7015068705865023e-06
-2.016216846586171e-05   2.99707122246167e-06   -3.7015068705865023e-06
-8.11316221724962e-06   1.6911292410269868e-06   -2.299961876274582e-05
-8.11316221724962e-06   1.6911292410269868e-06   -2.299961876274582e-05
-8.11316221724962e-06   1.6911292410269868e-06   -2.299961876274582e-05
-8.11316221724962e-06   1.6911292410269868e-06   -2.299961876274582e-05
2.8327063272846786e-06   0.0   -4.304240528776802e-05
2.8327063272846786e-06   0.0   -4.304240528776802e-05
2.8327063272846786e-06   0.0   -4.304240528776802e-05
2.8327063272846786e-06   0.0   -4.304240528776802e-05
2.969246854813989e-05   -3.482642950290981e-06   -3.65720689850558e-07
2.969246854813989e-05   -3.482642950290981e-06   -3.65720689850558e-07
2.969246854813989e-05   -3.482642950290981e-06   -3.65720689850558e-07
2.969246854813989e-05   -3.482642950290981e-06   -3.65720689850558e-07
2.9749502752519055e-05   0.0   -4.537076997999131e-05
2.9749502752519055e-05   0.0   -4.537076997999131e-05
2.9749502752519055e-05   0.0   -4.537076997999131e-05
2.9749502752519055e-05   0.0   -4.537076997999131e-05
3.3711607618811314e-06   -2.62439960141784e-06   1.677730985892562e-07
3.3711607618811314e-06   -2.62439960141784e-06   1.677730985892562e-07
3.3711607618811314e-06   -2.62439960141784e-06   1.677730985892562e-07
3.3711607618811314e-06   -2.62439960141784e-06   1.677730985892562e-07
1.629110453990187e-05   -1.9403039101860778e-06   -2.1775923946184333e-05
1.629110453990187e-05   -1.9403039101860778e-06   -2.1775923946184333e-05
1.629110453990187e-05   -1.9403039101860778e-06   -2.1775923946184333e-05
1.629110453990187e-05   -1.9403039101860778e-06   -2.1775923946184333e-05
3.3711607618811314e-06   0.0   -4.3796130219140604e-05
3.3711607618811314e-06   0.0   -4.3796130219140604e-05
3.3711607618811314e-06   0.0   -4.3796130219140604e-05
3.3711607618811314e-06   0.0   -4.3796130219140604e-05
2.9749502752519055e-05   -2.62439960141784e-06   -1.4068666622614465e-06
2.9749502752519055e-05   -2.62439960141784e-06   -1.4068666622614465e-06
2.9749502752519055e-05   -2.62439960141784e-06   -1.4068666622614465e-06
2.9749502752519055e-05   -2.62439960141784e-06   -1.4068666622614465e-06
2.962574045080771e-05   0.0   -4.4722922862452686e-05
2.962574045080771e-05   0.0   -4.4722922862452686e-05
2.962574045080771e-05   0.0   -4.4722922862452686e-05
2.962574045080771e-05   0.0   -4.4722922862452686e-05
3.796636583590542e-06   -1.6495605135142621e-06   -6.84680108982182e-07
3.796636583590542e-06   -1.6495605135142621e-06   -6.84680108982182e-07
3.796636583590542e-06   -1.6495605135142621e-06   -6.84680108982182e-07
3.796636583590542e-06   -1.6495605135142621e-06   -6.84680108982182e-07
1.649845060634442e-05   -7.723272027600702e-07   -2.2380710133357817e-05
1.649845060634442e-05   -7.723272027600702e-07   -2.2380710133357817e-05
1.649845060634442e-05   -7.723272027600702e-07   -2.2380710133357817e-05
1.649845060634442e-05   -7.723272027600702e-07   -2.2380710133357817e-05
3.7966365835905387e-06   0.0   -4.373318655434408e-05
3.7966365835905387e-06   0.0   -4.373318655434408e-05
3.7966365835905387e-06   0.0   -4.373318655434408e-05
3.7966365835905387e-06   0.0   -4.373318655434408e-05
2.962574045080771e-05   -1.6495605135142621e-06   -1.6744164170907487e-06
2.962574045080771e-05   -1.6495605135142621e-06   -1.6744164170907487e-06
2.962574045080771e-05   -1.6495605135142621e-06   -1.6744164170907487e-06
2.962574045080771e-05   -1.6495605135142621e-06   -1.6744164170907487e-06
3.0203009547991936e-05   0.0   -4.2990563441196016e-05
3.0203009547991936e-05   0.0   -4.2990563441196016e-05
3.0203009547991936e-05   0.0   -4.2990563441196016e-05
3.0203009547991936e-05   0.0   -4.2990563441196016e-05
4.367877033093488e-06   -3.398168986018887e-07   2.718808894625227e-07
4.367877033093488e-06   -3.398168986018887e-07   2.718808894625227e-07
4.367877033093488e-06   -3.398168986018887e-07   2.718808894625227e-07
4.367877033093488e-06   -3.398168986018887e-07   2.718808894625227e-07
1.6999823065791227e-05   6.188525942900833e-07   -2.1356564194102204e-05
1.6999823065791227e-05   6.188525942900833e-07   -2.1356564194102204e-05
1.6999823065791227e-05   6.188525942900833e-07   -2.1356564194102204e-05
1.6999823065791227e-05   6.188525942900833e-07   -2.1356564194102204e-05
2.969246854813989e-05   0.0   -4.5131991057942606e-05
2.969246854813989e-05   0.0   -4.5131991057942606e-05
2.969246854813989e-05   0.0   -4.5131991057942606e-05
2.969246854813989e-05   0.0   -4.5131991057942606e-05
6.705738513659854e-05   -8.831333522782279e-06   1.1844069809152806e-05
6.705738513659854e-05   -8.831333522782279e-06   1.1844069809152806e-05
6.705738513659854e-05   -8.831333522782279e-06   1.1844069809152806e-05
6.705738513659854e-05   -8.831333522782279e-06   1.1844069809152806e-05
6.298320852315552e-05   0.0   -4.9877863288270124e-05
6.298320852315552e-05   0.0   -4.9877863288270124e-05
6.298320852315552e-05   0.0   -4.9877863288270124e-05
6.298320852315552e-05   0.0   -4.9877863288270124e-05
2.9749502752519055e-05   -7.511822180464691e-06   1.0018739637736133e-05
2.9749502752519055e-05   -7.511822180464691e-06   1.0018739637736133e-05
2.9749502752519055e-05   -7.511822180464691e-06   1.0018739637736133e-05
2.9749502752519055e-05   -7.511822180464691e-06   1.0018739637736133e-05
4.6337838535647704e-05   -3.95489352527294e-06   -1.976264386059332e-05
4.6337838535647704e-05   -3.95489352527294e-06   -1.976264386059332e-05
4.6337838535647704e-05   -3.95489352527294e-06   -1.976264386059332e-05
4.6337838535647704e-05   -3.95489352527294e-06   -1.976264386059332e-05
2.9749502752519028e-05   0.0   -4.5370769979991266e-05
2.9749502752519028e-05   0.0   -4.5370769979991266e-05
2.9749502752519028e-05   0.0   -4.5370769979991266e-05
2.9749502752519028e-05   0.0   -4.5370769979991266e-05
6.29832085231553e-05   -7.511822180464677e-06   5.5116463294572755e-06
6.29832085231553e-05   -7.511822180464677e-06   5.5116463294572755e-06
6.29832085231553e-05   -7.511822180464677e-06   5.5116463294572755e-06
6.29832085231553e-05   -7.511822180464677e-06   5.5116463294572755e-06
6.110609167844113e-05   0.0   -4.8840915231180136e-05
6.110609167844113e-05   0.0   -4.8840915231180136e-05
6.110609167844113e-05   0.0   -4.8840915231180136e-05
6.110609167844113e-05   0.0   -4.8840915231180136e-05
2.962574045080771e-05   -6.863320614545755e-06   7.74432918360301e-06
2.962574045080771e-05   -6.863320614545755e-06   7.74432918360301e-06
2.962574045080771e-05   -6.863320614545755e-06   7.74432918360301e-06
2.962574045080771e-05   -6.863320614545755e-06   7.74432918360301e-06
4.542779721548007e-05   -2.891787709324021e-06   -2.097535183398395e-05
4.542779721548007e-05   -2.891787709324021e-06   -2.097535183398395e-05
4.542779721548007e-05   -2.891787709324021e-06   -2.097535183398395e-05
4.542779721548007e-05   -2.891787709324021e-06   -2.097535183398395e-05
2.962574045080771e-05   0.0   -4.4722922862452686e-05
2.962574045080771e-05   0.0   -4.4722922862452686e-05
2.962574045080771e-05   0.0   -4.4722922862452686e-05
2.962574045080771e-05   0.0   -4.4722922862452686e-05
6.110609167844092e-05   -6.863320614545728e-06   3.626336814875546e-06
6.110609167844092e-05   -6.863320614545728e-06   3.626336814875546e-06
6.110609167844092e-05   -6.863320614545728e-06   3.626336814875546e-06
6.110609167844092e-05   -6.863320614545728e-06   3.626336814875546e-06
5.830904119642672e-05   0.0   -4.618958848646362e-05
5.830904119642672e-05   0.0   -4.618958848646362e-05
5.830904119642672e-05   0.0   -4.618958848646362e-05
5.830904119642672e-05   0.0   -4.618958848646362e-05
3.0203009547991936e-05   -5.33170840877948e-06   3.8528226395287724e-06
3.0203009547991936e-05   -5.33170840877948e-06   3.8528226395287724e-06
3.0203009547991936e-05   -5.33170840877948e-06   3.8528226395287724e-06
3.0203009547991936e-05   -5.33170840877948e-06   3.8528226395287724e-06
4.3967390823617265e-05   -1.222221353342512e-06   -2.155350505310892e-05
4.3967390823617265e-05   -1.222221353342512e-06   -2.155350505310892e-05
4.3967390823617265e-05   -1.222221353342512e-06   -2.155350505310892e-05
4.3967390823617265e-05   -1.222221353342512e-06   -2.155350505310892e-05
-6.555275043412571e-05   8.36779369523483e-06   -4.3045964212350315e-05
-6.555275043412571e-05   8.36779369523483e-06   -4.3045964212350315e-05
-6.555275043412571e-05   8.36779369523483e-06   -4.3045964212350315e-05
-6.555275043412571e-05   8.36779369523483e-06   -4.3045964212350315e-05