<?xml version="1.0"?> 
<VTKFile type="UnstructuredGrid"> 
   <UnstructuredGrid> 
      <Piece NumberOfPoints="6000"  NumberOfCells="1500">  
          <Points>  
             <DataArray type="Float64" NumberOfComponents="3" format="ascii">   
-500.0   0.0   0.0
-450.0   0.0   0.0
-500.0   30.0   0.0
-500.0   0.0   16.666666666666668
-450.0   0.0   0.0
-450.0   30.0   0.0
-500.0   30.0   0.0
-450.0   30.0   16.666666666666668
-500.0   0.0   16.666666666666668
-500.0   30.0   16.666666666666668
-450.0   30.0   16.666666666666668
-500.0   30.0   0.0
-500.0   0.0   16.666666666666668
-450.0   30.0   16.666666666666668
-450.0   0.0   16.666666666666668
-450.0   0.0   0.0
-500.0   0.0   16.666666666666668
-450.0   30.0   16.666666666666668
-450.0   0.0   0.0
-500.0   30.0   0.0
-500.0   0.0   16.666666666666668
-450.0   0.0   16.666666666666668
-500.0   30.0   16.666666666666668
-500.0   0.0   33.333333333333336
-450.0   0.0   16.666666666666668
-450.0   30.0   16.666666666666668
-500.0   30.0   16.666666666666668
-450.0   30.0   33.333333333333336
-500.0   0.0   33.333333333333336
-500.0   30.0   33.333333333333336
-450.0   30.0   33.333333333333336
-500.0   30.0   16.666666666666668
-500.0   0.0   33.333333333333336
-450.0   30.0   33.333333333333336
-450.0   0.0   33.333333333333336
-450.0   0.0   16.666666666666668
-500.0   0.0   33.333333333333336
-450.0   30.0   33.333333333333336
-450.0   0.0   16.666666666666668
-500.0   30.0   16.666666666666668
-500.0   0.0   33.333333333333336
-450.0   0.0   33.333333333333336
-500.0   30.0   33.333333333333336
-500.0   0.0   50.0
-450.0   0.0   33.333333333333336
-450.0   30.0   33.333333333333336
-500.0   30.0   33.333333333333336
-450.0   30.0   50.0
-500.0   0.0   50.0
-500.0   30.0   50.0
-450.0   30.0   50.0
-500.0   30.0   33.333333333333336
-500.0   0.0   50.0
-450.0   30.0   50.0
-450.0   0.0   50.0
-450.0   0.0   33.333333333333336
-500.0   0.0   50.0
-450.0   30.0   50.0
-450.0   0.0   33.333333333333336
-500.0   30.0   33.333333333333336
-500.0   30.0   0.0
-450.0   30.0   0.0
-500.0   60.0   0.0
-500.0   30.0   16.666666666666668
-450.0   30.0   0.0
-450.0   60.0   0.0
-500.0   60.0   0.0
-450.0   60.0   16.666666666666668
-500.0   30.0   16.666666666666668
-500.0   60.0   16.666666666666668
-450.0   60.0   16.666666666666668
-500.0   60.0   0.0
-500.0   30.0   16.666666666666668
-450.0   60.0   16.666666666666668
-450.0   30.0   16.666666666666668
-450.0   30.0   0.0
-500.0   30.0   16.666666666666668
-450.0   60.0   16.666666666666668
-450.0   30.0   0.0
-500.0   60.0   0.0
-500.0   30.0   16.666666666666668
-450.0   30.0   16.666666666666668
-500.0   60.0   16.666666666666668
-500.0   30.0   33.333333333333336
-450.0   30.0   16.666666666666668
-450.0   60.0   16.666666666666668
-500.0   60.0   16.666666666666668
-450.0   60.0   33.333333333333336
-500.0   30.0   33.333333333333336
-500.0   60.0   33.333333333333336
-450.0   60.0   33.333333333333336
-500.0   60.0   16.666666666666668
-500.0   30.0   33.333333333333336
-450.0   60.0   33.333333333333336
-450.0   30.0   33.333333333333336
-450.0   30.0   16.666666666666668
-500.0   30.0   33.333333333333336
-450.0   60.0   33.333333333333336
-450.0   30.0   16.666666666666668
-500.0   60.0   16.666666666666668
-500.0   30.0   33.333333333333336
-450.0   30.0   33.333333333333336
-500.0   60.0   33.333333333333336
-500.0   30.0   50.0
-450.0   30.0   33.333333333333336
-450.0   60.0   33.333333333333336
-500.0   60.0   33.333333333333336
-450.0   60.0   50.0
-500.0   30.0   50.0
-500.0   60.0   50.0
-450.0   60.0   50.0
-500.0   60.0   33.333333333333336
-500.0   30.0   50.0
-450.0   60.0   50.0
-450.0   30.0   50.0
-450.0   30.0   33.333333333333336
-500.0   30.0   50.0
-450.0   60.0   50.0
-450.0   30.0   33.333333333333336
-500.0   60.0   33.333333333333336
-500.0   60.0   0.0
-450.0   60.0   0.0
-500.0   90.0   0.0
-500.0   60.0   16.666666666666668
-450.0   60.0   0.0
-450.0   90.0   0.0
-500.0   90.0   0.0
-450.0   90.0   16.666666666666668
-500.0   60.0   16.666666666666668
-500.0   90.0   16.666666666666668
-450.0   90.0   16.666666666666668
-500.0   90.0   0.0
-500.0   60.0   16.666666666666668
-450.0   90.0   16.666666666666668
-450.0   60.0   16.666666666666668
-450.0   60.0   0.0
-500.0   60.0   16.666666666666668
-450.0   90.0   16.666666666666668
-450.0   60.0   0.0
-500.0   90.0   0.0
-500.0   60.0   16.666666666666668
-450.0   60.0   16.666666666666668
-500.0   90.0   16.666666666666668
-500.0   60.0   33.333333333333336
-450.0   60.0   16.666666666666668
-450.0   90.0   16.666666666666668
-500.0   90.0   16.666666666666668
-450.0   90.0   33.333333333333336
-500.0   60.0   33.333333333333336
-500.0   90.0   33.333333333333336
-450.0   90.0   33.333333333333336
-500.0   90.0   16.666666666666668
-500.0   60.0   33.333333333333336
-450.0   90.0   33.333333333333336
-450.0   60.0   33.333333333333336
-450.0   60.0   16.666666666666668
-500.0   60.0   33.333333333333336
-450.0   90.0   33.333333333333336
-450.0   60.0   16.666666666666668
-500.0   90.0   16.666666666666668
-500.0   60.0   33.333333333333336
-450.0   60.0   33.333333333333336
-500.0   90.0   33.333333333333336
-500.0   60.0   50.0
-450.0   60.0   33.333333333333336
-450.0   90.0   33.333333333333336
-500.0   90.0   33.333333333333336
-450.0   90.0   50.0
-500.0   60.0   50.0
-500.0   90.0   50.0
-450.0   90.0   50.0
-500.0   90.0   33.333333333333336
-500.0   60.0   50.0
-450.0   90.0   50.0
-450.0   60.0   50.0
-450.0   60.0   33.333333333333336
-500.0   60.0   50.0
-450.0   90.0   50.0
-450.0   60.0   33.333333333333336
-500.0   90.0   33.333333333333336
-500.0   90.0   0.0
-450.0   90.0   0.0
-500.0   120.0   0.0
-500.0   90.0   16.666666666666668
-450.0   90.0   0.0
-450.0   120.0   0.0
-500.0   120.0   0.0
-450.0   120.0   16.666666666666668
-500.0   90.0   16.666666666666668
-500.0   120.0   16.666666666666668
-450.0   120.0   16.666666666666668
-500.0   120.0   0.0
-500.0   90.0   16.666666666666668
-450.0   120.0   16.666666666666668
-450.0   90.0   16.666666666666668
-450.0   90.0   0.0
-500.0   90.0   16.666666666666668
-450.0   120.0   16.666666666666668
-450.0   90.0   0.0
-500.0   120.0   0.0
-500.0   90.0   16.666666666666668
-450.0   90.0   16.666666666666668
-500.0   120.0   16.666666666666668
-500.0   90.0   33.333333333333336
-450.0   90.0   16.666666666666668
-450.0   120.0   16.666666666666668
-500.0   120.0   16.666666666666668
-450.0   120.0   33.333333333333336
-500.0   90.0   33.333333333333336
-500.0   120.0   33.333333333333336
-450.0   120.0   33.333333333333336
-500.0   120.0   16.666666666666668
-500.0   90.0   33.333333333333336
-450.0   120.0   33.333333333333336
-450.0   90.0   33.333333333333336
-450.0   90.0   16.666666666666668
-500.0   90.0   33.333333333333336
-450.0   120.0   33.333333333333336
-450.0   90.0   16.666666666666668
-500.0   120.0   16.666666666666668
-500.0   90.0   33.333333333333336
-450.0   90.0   33.333333333333336
-500.0   120.0   33.333333333333336
-500.0   90.0   50.0
-450.0   90.0   33.333333333333336
-450.0   120.0   33.333333333333336
-500.0   120.0   33.333333333333336
-450.0   120.0   50.0
-500.0   90.0   50.0
-500.0   120.0   50.0
-450.0   120.0   50.0
-500.0   120.0   33.333333333333336
-500.0   90.0   50.0
-450.0   120.0   50.0
-450.0   90.0   50.0
-450.0   90.0   33.333333333333336
-500.0   90.0   50.0
-450.0   120.0   50.0
-450.0   90.0   33.333333333333336
-500.0   120.0   33.333333333333336
-500.0   120.0   0.0
-450.0   120.0   0.0
-500.0   150.0   0.0
-500.0   120.0   16.666666666666668
-450.0   120.0   0.0
-450.0   150.0   0.0
-500.0   150.0   0.0
-450.0   150.0   16.666666666666668
-500.0   120.0   16.666666666666668
-500.0   150.0   16.666666666666668
-450.0   150.0   16.666666666666668
-500.0   150.0   0.0
-500.0   120.0   16.666666666666668
-450.0   150.0   16.666666666666668
-450.0   120.0   16.666666666666668
-450.0   120.0   0.0
-500.0   120.0   16.666666666666668
-450.0   150.0   16.666666666666668
-450.0   120.0   0.0
-500.0   150.0   0.0
-500.0   120.0   16.666666666666668
-450.0   120.0   16.666666666666668
-500.0   150.0   16.666666666666668
-500.0   120.0   33.333333333333336
-450.0   120.0   16.666666666666668
-450.0   150.0   16.666666666666668
-500.0   150.0   16.666666666666668
-450.0   150.0   33.333333333333336
-500.0   120.0   33.333333333333336
-500.0   150.0   33.333333333333336
-450.0   150.0   33.333333333333336
-500.0   150.0   16.666666666666668
-500.0   120.0   33.333333333333336
-450.0   150.0   33.333333333333336
-450.0   120.0   33.333333333333336
-450.0   120.0   16.666666666666668
-500.0   120.0   33.333333333333336
-450.0   150.0   33.333333333333336
-450.0   120.0   16.666666666666668
-500.0   150.0   16.666666666666668
-500.0   120.0   33.333333333333336
-450.0   120.0   33.333333333333336
-500.0   150.0   33.333333333333336
-500.0   120.0   50.0
-450.0   120.0   33.333333333333336
-450.0   150.0   33.333333333333336
-500.0   150.0   33.333333333333336
-450.0   150.0   50.0
-500.0   120.0   50.0
-500.0   150.0   50.0
-450.0   150.0   50.0
-500.0   150.0   33.333333333333336
-500.0   120.0   50.0
-450.0   150.0   50.0
-450.0   120.0   50.0
-450.0   120.0   33.333333333333336
-500.0   120.0   50.0
-450.0   150.0   50.0
-450.0   120.0   33.333333333333336
-500.0   150.0   33.333333333333336
-450.0   0.0   0.0
-400.0   0.0   0.0
-450.0   30.0   0.0
-450.0   0.0   16.666666666666668
-400.0   0.0   0.0
-400.0   30.0   0.0
-450.0   30.0   0.0
-400.0   30.0   16.666666666666668
-450.0   0.0   16.666666666666668
-450.0   30.0   16.666666666666668
-400.0   30.0   16.666666666666668
-450.0   30.0   0.0
-450.0   0.0   16.666666666666668
-400.0   30.0   16.666666666666668
-400.0   0.0   16.666666666666668
-400.0   0.0   0.0
-450.0   0.0   16.666666666666668
-400.0   30.0   16.666666666666668
-400.0   0.0   0.0
-450.0   30.0   0.0
-450.0   0.0   16.666666666666668
-400.0   0.0   16.666666666666668
-450.0   30.0   16.666666666666668
[...]
          <PointData>  
             <DataArray type="Float64" NumberOfComponents="3" Name="Strains" format="ascii">   
-6.308032811912307e-05   0.0   -4.148688028664928e-05
-6.308032811912307e-05   0.0   -4.148688028664928e-05
-6.308032811912307e-05   0.0   -4.148688028664928e-05
-6.308032811912307e-05   0.0   -4.148688028664928e-05
-4.0130614229645834e-05   6.976526895806183e-06   9.48558999963077e-07
-4.0130614229645834e-05   6.976526895806183e-06   9.48558999963077e-07
-4.0130614229645834e-05   6.976526895806183e-06   9.48558999963077e-07
-4.0130614229645834e-05   6.976526895806183e-06   9.48558999963077e-07
-3.933111155235474e-05   0.0   -3.9166908326478e-05
-3.933111155235474e-05   0.0   -3.9166908326478e-05
-3.933111155235474e-05   0.0   -3.9166908326478e-05
-3.933111155235474e-05   0.0   -3.9166908326478e-05
-6.600931584814633e-05   8.377704899691478e-06   2.701425600265913e-07
-6.600931584814633e-05   8.377704899691478e-06   2.701425600265913e-07
-6.600931584814633e-05   8.377704899691478e-06   2.701425600265913e-07
-6.600931584814633e-05   8.377704899691478e-06   2.701425600265913e-07
-5.120571983573882e-05   1.9333099668093914e-06   -2.0535880500923318e-05
-5.120571983573882e-05   1.9333099668093914e-06   -2.0535880500923318e-05
-5.120571983573882e-05   1.9333099668093914e-06   -2.0535880500923318e-05
-5.120571983573882e-05   1.9333099668093914e-06   -2.0535880500923318e-05
-6.600931584814645e-05   0.0   -4.41935312662929e-05
-6.600931584814645e-05   0.0   -4.41935312662929e-05
-6.600931584814645e-05   0.0   -4.41935312662929e-05
-6.600931584814645e-05   0.0   -4.41935312662929e-05
-3.933111155235474e-05   8.377704899691492e-06   5.296765499841492e-06
-3.933111155235474e-05   8.377704899691492e-06   5.296765499841492e-06
-3.933111155235474e-05   8.377704899691492e-06   5.296765499841492e-06
-3.933111155235474e-05   8.377704899691492e-06   5.296765499841492e-06
-3.9435707561971136e-05   0.0   -4.012387426149853e-05
-3.9435707561971136e-05   0.0   -4.012387426149853e-05
-3.9435707561971136e-05   0.0   -4.012387426149853e-05
-3.9435707561971136e-05   0.0   -4.012387426149853e-05
-6.8063411694086e-05   8.976950608332709e-06   2.2027955936934683e-06
-6.8063411694086e-05   8.976950608332709e-06   2.2027955936934683e-06
-6.8063411694086e-05   8.976950608332709e-06   2.2027955936934683e-06
-6.8063411694086e-05   8.976950608332709e-06   2.2027955936934683e-06
-5.27225117050587e-05   3.391380837328648e-06   -2.0014029192082916e-05
-5.27225117050587e-05   3.391380837328648e-06   -2.0014029192082916e-05
-5.27225117050587e-05   3.391380837328648e-06   -2.0014029192082916e-05
-5.27225117050587e-05   3.391380837328648e-06   -2.0014029192082916e-05
-6.806341169408612e-05   0.0   -4.5510044626498165e-05
-6.806341169408612e-05   0.0   -4.5510044626498165e-05
-6.806341169408612e-05   0.0   -4.5510044626498165e-05
-6.806341169408612e-05   0.0   -4.5510044626498165e-05
-3.9435707561971136e-05   8.976950608332736e-06   7.588965958693088e-06
-3.9435707561971136e-05   8.976950608332736e-06   7.588965958693088e-06
-3.9435707561971136e-05   8.976950608332736e-06   7.588965958693088e-06
-3.9435707561971136e-05   8.976950608332736e-06   7.588965958693088e-06
-3.9407849596833455e-05   0.0   -4.037077367689399e-05
-3.9407849596833455e-05   0.0   -4.037077367689399e-05
-3.9407849596833455e-05   0.0   -4.037077367689399e-05
-3.9407849596833455e-05   0.0   -4.037077367689399e-05
-7.249477659330305e-05   1.0231278383703504e-05   8.635337620333411e-06
-7.249477659330305e-05   1.0231278383703504e-05   8.635337620333411e-06
-7.249477659330305e-05   1.0231278383703504e-05   8.635337620333411e-06
-7.249477659330305e-05   1.0231278383703504e-05   8.635337620333411e-06
-5.3735630645459695e-05   4.282725791336811e-06   -1.9060774070652137e-05
-5.3735630645459695e-05   4.282725791336811e-06   -1.9060774070652137e-05
-5.3735630645459695e-05   4.282725791336811e-06   -1.9060774070652137e-05
-5.3735630645459695e-05   4.282725791336811e-06   -1.9060774070652137e-05
-4.01306142296459e-05   0.0   -3.730096414916557e-05
-4.01306142296459e-05   0.0   -3.730096414916557e-05
-4.01306142296459e-05   0.0   -3.730096414916557e-05
-4.01306142296459e-05   0.0   -3.730096414916557e-05
-1.8283012766766537e-05   2.556484581315972e-06   6.455957044229285e-07
-1.8283012766766537e-05   2.556484581315972e-06   6.455957044229285e-07
-1.8283012766766537e-05   2.556484581315972e-06   6.455957044229285e-07
-1.8283012766766537e-05   2.556484581315972e-06   6.455957044229285e-07
-1.7578178744414567e-05   0.0   -3.698083739319367e-05
-1.7578178744414567e-05   0.0   -3.698083739319367e-05
-1.7578178744414567e-05   0.0   -3.698083739319367e-05
-1.7578178744414567e-05   0.0   -3.698083739319367e-05
-3.933111155235474e-05   3.6434515554738993e-06   -2.9120203132443746e-06
-3.933111155235474e-05   3.6434515554738993e-06   -2.9120203132443746e-06
-3.933111155235474e-05   3.6434515554738993e-06   -2.9120203132443746e-06
-3.933111155235474e-05   3.6434515554738993e-06   -2.9120203132443746e-06
-2.8854396487030184e-05   2.6677229664324277e-07   -1.8347204533486792e-05
-2.8854396487030184e-05   2.6677229664324277e-07   -1.8347204533486792e-05
-2.8854396487030184e-05   2.6677229664324277e-07   -1.8347204533486792e-05
-2.8854396487030184e-05   2.6677229664324277e-07   -1.8347204533486792e-05
-3.933111155235471e-05   0.0   -3.916690832647797e-05
-3.933111155235471e-05   0.0   -3.916690832647797e-05
-3.933111155235471e-05   0.0   -3.916690832647797e-05
-3.933111155235471e-05   0.0   -3.916690832647797e-05
-1.7578178744414567e-05   3.6434515554738993e-06   -7.259493799600439e-07
-1.7578178744414567e-05   3.6434515554738993e-06   -7.259493799600439e-07
-1.7578178744414567e-05   3.6434515554738993e-06   -7.259493799600439e-07
-1.7578178744414567e-05   3.6434515554738993e-06   -7.259493799600439e-07
-1.7179736883791496e-05   0.0   -3.7443738716743206e-05
-1.7179736883791496e-05   0.0   -3.7443738716743206e-05
-1.7179736883791496e-05   0.0   -3.7443738716743206e-05
-1.7179736883791496e-05   0.0   -3.7443738716743206e-05
-3.9435707561971136e-05   4.466892574592194e-06   -3.0305897978658095e-06
-3.9435707561971136e-05   4.466892574592194e-06   -3.0305897978658095e-06
-3.9435707561971136e-05   4.466892574592194e-06   -3.0305897978658095e-06
-3.9435707561971136e-05   4.466892574592194e-06   -3.0305897978658095e-06
-2.8255424218073063e-05   1.435974674778999e-06   -1.9845844631141165e-05
-2.8255424218073063e-05   1.435974674778999e-06   -1.9845844631141165e-05
-2.8255424218073063e-05   1.435974674778999e-06   -1.9845844631141165e-05
-2.8255424218073063e-05   1.435974674778999e-06   -1.9845844631141165e-05
-3.9435707561971136e-05   0.0   -4.012387426149853e-05
-3.9435707561971136e-05   0.0   -4.012387426149853e-05
-3.9435707561971136e-05   0.0   -4.012387426149853e-05
-3.9435707561971136e-05   0.0   -4.012387426149853e-05
-1.7179736883791496e-05   4.466892574592194e-06   -3.5045425311048045e-07
-1.7179736883791496e-05   4.466892574592194e-06   -3.5045425311048045e-07
-1.7179736883791496e-05   4.466892574592194e-06   -3.5045425311048045e-07
-1.7179736883791496e-05   4.466892574592194e-06   -3.5045425311048045e-07
-1.6815879558097915e-05   0.0   -3.725122304628883e-05
-1.6815879558097915e-05   0.0   -3.725122304628883e-05
-1.6815879558097915e-05   0.0   -3.725122304628883e-05
-1.6815879558097915e-05   0.0   -3.725122304628883e-05
-3.940784959683335e-05   5.199251051008543e-06   -2.717490279001406e-06
-3.940784959683335e-05   5.199251051008543e-06   -2.717490279001406e-06
-3.940784959683335e-05   5.199251051008543e-06   -2.717490279001406e-06
-3.940784959683335e-05   5.199251051008543e-06   -2.717490279001406e-06
-2.8125793560034517e-05   2.3938760126747285e-06   -1.9837691983999324e-05
-2.8125793560034517e-05   2.3938760126747285e-06   -1.9837691983999324e-05
-2.8125793560034517e-05   2.3938760126747285e-06   -1.9837691983999324e-05
-2.8125793560034517e-05   2.3938760126747285e-06   -1.9837691983999324e-05
-1.8283012766766567e-05   0.0   -3.576707340037598e-05
-1.8283012766766567e-05   0.0   -3.576707340037598e-05
-1.8283012766766567e-05   0.0   -3.576707340037598e-05
-1.8283012766766567e-05   0.0   -3.576707340037598e-05
2.353461134120212e-06   -3.2920251855930537e-07   -1.5704717433668942e-06
2.353461134120212e-06   -3.2920251855930537e-07   -1.5704717433668942e-06
2.353461134120212e-06   -3.2920251855930537e-07   -1.5704717433668942e-06
2.353461134120212e-06   -3.2920251855930537e-07   -1.5704717433668942e-06
2.8062873733700615e-06   0.0   -3.659283592382454e-05
2.8062873733700615e-06   0.0   -3.659283592382454e-05
2.8062873733700615e-06   0.0   -3.659283592382454e-05
2.8062873733700615e-06   0.0   -3.659283592382454e-05
-1.7578178744414567e-05   6.466691156149933e-07   -3.006727196885941e-06
-1.7578178744414567e-05   6.466691156149933e-07   -3.006727196885941e-06
-1.7578178744414567e-05   6.466691156149933e-07   -3.006727196885941e-06
-1.7578178744414567e-05   6.466691156149933e-07   -3.006727196885941e-06
-7.738362696698236e-06   -6.881354362072398e-07   -1.8605537878653078e-05
-7.738362696698236e-06   -6.881354362072398e-07   -1.8605537878653078e-05
-7.738362696698236e-06   -6.881354362072398e-07   -1.8605537878653078e-05
-7.738362696698236e-06   -6.881354362072398e-07   -1.8605537878653078e-05
-1.7578178744414567e-05   0.0   -3.698083739319367e-05
-1.7578178744414567e-05   0.0   -3.698083739319367e-05
-1.7578178744414567e-05   0.0   -3.698083739319367e-05
-1.7578178744414567e-05   0.0   -3.698083739319367e-05
2.806287373370066e-06   6.466691156150001e-07   -2.6187257275169356e-06
2.806287373370066e-06   6.466691156150001e-07   -2.6187257275169356e-06
2.806287373370066e-06   6.466691156150001e-07   -2.6187257275169356e-06
2.806287373370066e-06   6.466691156150001e-07   -2.6187257275169356e-06
3.1645225062728662e-06   0.0   -3.6539998659222934e-05
3.1645225062728662e-06   0.0   -3.6539998659222934e-05
3.1645225062728662e-06   0.0   -3.6539998659222934e-05
3.1645225062728662e-06   0.0   -3.6539998659222934e-05
-1.717973688379147e-05   1.506233429200342e-06   -3.536639733302585e-06
-1.717973688379147e-05   1.506233429200342e-06   -3.536639733302585e-06
-1.717973688379147e-05   1.506233429200342e-06   -3.536639733302585e-06
-1.717973688379147e-05   1.506233429200342e-06   -3.536639733302585e-06
-7.206828119070848e-06   3.673656116422271e-07   -1.9474833650635455e-05
-7.206828119070848e-06   3.673656116422271e-07   -1.9474833650635455e-05
-7.206828119070848e-06   3.673656116422271e-07   -1.9474833650635455e-05
-7.206828119070848e-06   3.673656116422271e-07   -1.9474833650635455e-05
-1.7179736883791496e-05   0.0   -3.7443738716743206e-05
-1.7179736883791496e-05   0.0   -3.7443738716743206e-05
-1.7179736883791496e-05   0.0   -3.7443738716743206e-05
-1.7179736883791496e-05   0.0   -3.7443738716743206e-05
3.1645225062728717e-06   1.5062334292003488e-06   -2.6328996757823853e-06
3.1645225062728717e-06   1.5062334292003488e-06   -2.6328996757823853e-06
3.1645225062728717e-06   1.5062334292003488e-06   -2.6328996757823853e-06
3.1645225062728717e-06   1.5062334292003488e-06   -2.6328996757823853e-06
3.644430071414706e-06   0.0   -3.575035188803933e-05
3.644430071414706e-06   0.0   -3.575035188803933e-05
3.644430071414706e-06   0.0   -3.575035188803933e-05
3.644430071414706e-06   0.0   -3.575035188803933e-05
-1.6815879558097902e-05   2.5014519304157606e-06   -3.1507069971011205e-06
-1.6815879558097902e-05   2.5014519304157606e-06   -3.1507069971011205e-06
-1.6815879558097902e-05   2.5014519304157606e-06   -3.1507069971011205e-06
-1.6815879558097902e-05   2.5014519304157606e-06   -3.1507069971011205e-06
-6.767653406188381e-06   1.4111556905865086e-06   -1.924357283971941e-05
-6.767653406188381e-06   1.4111556905865086e-06   -1.924357283971941e-05
-6.767653406188381e-06   1.4111556905865086e-06   -1.924357283971941e-05
-6.767653406188381e-06   1.4111556905865086e-06   -1.924357283971941e-05
2.3534611341202163e-06   0.0   -3.596459491151156e-05
2.3534611341202163e-06   0.0   -3.596459491151156e-05
2.3534611341202163e-06   0.0   -3.596459491151156e-05
2.3534611341202163e-06   0.0   -3.596459491151156e-05
2.4759422192733517e-05   -2.90406065317651e-06   -3.637628723952694e-07
2.4759422192733517e-05   -2.90406065317651e-06   -3.637628723952694e-07
2.4759422192733517e-05   -2.90406065317651e-06   -3.637628723952694e-07
2.4759422192733517e-05   -2.90406065317651e-06   -3.637628723952694e-07
2.4811015237053667e-05   0.0   -3.790533273574363e-05
2.4811015237053667e-05   0.0   -3.790533273574363e-05
2.4811015237053667e-05   0.0   -3.790533273574363e-05
2.4811015237053667e-05   0.0   -3.790533273574363e-05
2.806287373370071e-06   -2.1874946865315973e-06   8.171051564798245e-08
2.806287373370071e-06   -2.1874946865315973e-06   8.171051564798245e-08
2.806287373370071e-06   -2.1874946865315973e-06   8.171051564798245e-08
2.806287373370071e-06   -2.1874946865315973e-06   8.171051564798245e-08
1.3582238185586942e-05   -1.6172815201933925e-06   -1.8220335404516374e-05
1.3582238185586942e-05   -1.6172815201933925e-06   -1.8220335404516374e-05
1.3582238185586942e-05   -1.6172815201933925e-06   -1.8220335404516374e-05
1.3582238185586942e-05   -1.6172815201933925e-06   -1.8220335404516374e-05
2.806287373370071e-06   0.0   -3.659283592382467e-05
2.806287373370071e-06   0.0   -3.659283592382467e-05
2.806287373370071e-06   0.0   -3.659283592382467e-05
2.806287373370071e-06   0.0   -3.659283592382467e-05
2.4811015237053667e-05   -2.1874946865315973e-06   -1.2307862962709798e-06
2.4811015237053667e-05   -2.1874946865315973e-06   -1.2307862962709798e-06
2.4811015237053667e-05   -2.1874946865315973e-06   -1.2307862962709798e-06
2.4811015237053667e-05   -2.1874946865315973e-06   -1.2307862962709798e-06
2.4711274031639002e-05   0.0   -3.736411310441812e-05
2.4711274031639002e-05   0.0   -3.736411310441812e-05
2.4711274031639002e-05   0.0   -3.736411310441812e-05
2.4711274031639002e-05   0.0   -3.736411310441812e-05
3.1645225062728717e-06   -1.3735240753251987e-06   -6.287461169461168e-07
3.1645225062728717e-06   -1.3735240753251987e-06   -6.287461169461168e-07
3.1645225062728717e-06   -1.3735240753251987e-06   -6.287461169461168e-07
3.1645225062728717e-06   -1.3735240753251987e-06   -6.287461169461168e-07
1.3758780702504537e-05   -6.427309838278757e-07   -1.872431896556394e-05
1.3758780702504537e-05   -6.427309838278757e-07   -1.872431896556394e-05
1.3758780702504537e-05   -6.427309838278757e-07   -1.872431896556394e-05
1.3758780702504537e-05   -6.427309838278757e-07   -1.872431896556394e-05
3.1645225062728688e-06   0.0   -3.653999865922297e-05
3.1645225062728688e-06   0.0   -3.653999865922297e-05
3.1645225062728688e-06   0.0   -3.653999865922297e-05
3.1645225062728688e-06   0.0   -3.653999865922297e-05
2.4711274031639002e-05   -1.3735240753251987e-06   -1.4528605621412402e-06
2.4711274031639002e-05   -1.3735240753251987e-06   -1.4528605621412402e-06
2.4711274031639002e-05   -1.3735240753251987e-06   -1.4528605621412402e-06
2.4711274031639002e-05   -1.3735240753251987e-06   -1.4528605621412402e-06
2.51961226509114e-05   0.0   -3.591842789839566e-05
2.51961226509114e-05   0.0   -3.591842789839566e-05
2.51961226509114e-05   0.0   -3.591842789839566e-05
2.51961226509114e-05   0.0   -3.591842789839566e-05
3.6444300714147125e-06   -2.801266839271127e-07   1.6913574445508355e-07
3.6444300714147125e-06   -2.801266839271127e-07   1.6913574445508355e-07
3.6444300714147125e-06   -2.801266839271127e-07   1.6913574445508355e-07
3.6444300714147125e-06   -2.801266839271127e-07   1.6913574445508355e-07
1.4180322578592127e-05   5.179756340227779e-07   -1.7869546491610528e-05
1.4180322578592127e-05   5.179756340227779e-07   -1.7869546491610528e-05
1.4180322578592127e-05   5.179756340227779e-07   -1.7869546491610528e-05
1.4180322578592127e-05   5.179756340227779e-07   -1.7869546491610528e-05
2.4759422192733517e-05   0.0   -3.770703130341747e-05
2.4759422192733517e-05   0.0   -3.770703130341747e-05
2.4759422192733517e-05   0.0   -3.770703130341747e-05
2.4759422192733517e-05   0.0   -3.770703130341747e-05
5.5937938876334516e-05   -7.366870710387224e-06   9.83704074301883e-06
5.5937938876334516e-05   -7.366870710387224e-06   9.83704074301883e-06
5.5937938876334516e-05   -7.366870710387224e-06   9.83704074301883e-06
5.5937938876334516e-05   -7.366870710387224e-06   9.83704074301883e-06
5.25445802862586e-05   0.0   -4.166375566319777e-05
5.25445802862586e-05   0.0   -4.166375566319777e-05
5.25445802862586e-05   0.0   -4.166375566319777e-05
5.25445802862586e-05   0.0   -4.166375566319777e-05
2.4811015237053667e-05   -6.264038212423575e-06   8.31727567959792e-06
2.4811015237053667e-05   -6.264038212423575e-06   8.31727567959792e-06
2.4811015237053667e-05   -6.264038212423575e-06   8.31727567959792e-06
2.4811015237053667e-05   -6.264038212423575e-06   8.31727567959792e-06
3.865200123949606e-05   -3.297270299816925e-06   -1.6531095072036704e-05
3.865200123949606e-05   -3.297270299816925e-06   -1.6531095072036704e-05
3.865200123949606e-05   -3.297270299816925e-06   -1.6531095072036704e-05
3.865200123949606e-05   -3.297270299816925e-06   -1.6531095072036704e-05
2.4811015237053647e-05   0.0   -3.7905332735743604e-05
2.4811015237053647e-05   0.0   -3.7905332735743604e-05
2.4811015237053647e-05   0.0   -3.7905332735743604e-05
2.4811015237053647e-05   0.0   -3.7905332735743604e-05
5.254458028625842e-05   -6.264038212423548e-06   4.558852752143766e-06
5.254458028625842e-05   -6.264038212423548e-06   4.558852752143766e-06
5.254458028625842e-05   -6.264038212423548e-06   4.558852752143766e-06
5.254458028625842e-05   -6.264038212423548e-06   4.558852752143766e-06
5.0982712326477176e-05   0.0   -4.0797614862805957e-05
5.0982712326477176e-05   0.0   -4.0797614862805957e-05
5.0982712326477176e-05   0.0   -4.0797614862805957e-05
5.0982712326477176e-05   0.0   -4.0797614862805957e-05
2.4711274031639002e-05   -5.722502930646399e-06   6.421617386978833e-06
2.4711274031639002e-05   -5.722502930646399e-06   6.421617386978833e-06
2.4711274031639002e-05   -5.722502930646399e-06   6.421617386978833e-06
2.4711274031639002e-05   -5.722502930646399e-06   6.421617386978833e-06
3.78968637817654e-05   -2.410235105885273e-06   -1.754172622475517e-05
3.78968637817654e-05   -2.410235105885273e-06   -1.754172622475517e-05
3.78968637817654e-05   -2.410235105885273e-06   -1.754172622475517e-05
3.78968637817654e-05   -2.410235105885273e-06   -1.754172622475517e-05
2.4711274031639002e-05   0.0   -3.736411310441812e-05
2.4711274031639002e-05   0.0   -3.736411310441812e-05
2.4711274031639002e-05   0.0   -3.736411310441812e-05
2.4711274031639002e-05   0.0   -3.736411310441812e-05
5.0982712326477e-05   -5.722502930646372e-06   2.9881156285909907e-06
5.0982712326477e-05   -5.722502930646372e-06   2.9881156285909907e-06
5.0982712326477e-05   -5.722502930646372e-06   2.9881156285909907e-06
5.0982712326477e-05   -5.722502930646372e-06   2.9881156285909907e-06
4.865297260384484e-05   0.0   -3.858420972337114e-05
4.865297260384484e-05   0.0   -3.858420972337114e-05
4.865297260384484e-05   0.0   -3.858420972337114e-05
4.865297260384484e-05   0.0   -3.858420972337114e-05
2.51961226509114e-05   -4.442969708292569e-06   3.176322023160204e-06
2.51961226509114e-05   -4.442969708292569e-06   3.176322023160204e-06
2.51961226509114e-05   -4.442969708292569e-06   3.176322023160204e-06
2.51961226509114e-05   -4.442969708292569e-06   3.176322023160204e-06
3.668212331774196e-05   -1.0167471824609005e-06   -1.802274593705638e-05
3.668212331774196e-05   -1.0167471824609005e-06   -1.802274593705638e-05
3.668212331774196e-05   -1.0167471824609005e-06   -1.802274593705638e-05
3.668212331774196e-05   -1.0167471824609005e-06   -1.802274593705638e-05
-5.46666325966706e-05   6.976526895806183e-06   -3.5926330941484396e-05
-5.46666325966706e-05   6.976526895806183e-06   -3.5926330941484396e-05
-5.46666325966706e-05   6.976526895806183e-06   -3.5926330941484396e-05